 Entering Gaussian System, Link 0=g09
 Input=dimer_scan.com
 Output=dimer_scan.log
 Initial command:
 /appl/chem/G09RevD.01/g09/l1.exe "/wrk/asillanp/tst/g09/env/Gau-16137.inp" -scrdir="/wrk/asillanp/tst/g09/env/"
 Entering Link 1 = /appl/chem/G09RevD.01/g09/l1.exe PID=     16138.
  
 Copyright (c) 1988,1990,1992,1993,1995,1998,2003,2009,2013,
            Gaussian, Inc.  All Rights Reserved.
  
 This is part of the Gaussian(R) 09 program.  It is based on
 the Gaussian(R) 03 system (copyright 2003, Gaussian, Inc.),
 the Gaussian(R) 98 system (copyright 1998, Gaussian, Inc.),
 the Gaussian(R) 94 system (copyright 1995, Gaussian, Inc.),
 the Gaussian 92(TM) system (copyright 1992, Gaussian, Inc.),
 the Gaussian 90(TM) system (copyright 1990, Gaussian, Inc.),
 the Gaussian 88(TM) system (copyright 1988, Gaussian, Inc.),
 the Gaussian 86(TM) system (copyright 1986, Carnegie Mellon
 University), and the Gaussian 82(TM) system (copyright 1983,
 Carnegie Mellon University). Gaussian is a federally registered
 trademark of Gaussian, Inc.
  
 This software contains proprietary and confidential information,
 including trade secrets, belonging to Gaussian, Inc.
  
 This software is provided under written license and may be
 used, copied, transmitted, or stored only in accord with that
 written license.
  
 The following legend is applicable only to US Government
 contracts under FAR:
  
                    RESTRICTED RIGHTS LEGEND
  
 Use, reproduction and disclosure by the US Government is
 subject to restrictions as set forth in subparagraphs (a)
 and (c) of the Commercial Computer Software - Restricted
 Rights clause in FAR 52.227-19.
  
 Gaussian, Inc.
 340 Quinnipiac St., Bldg. 40, Wallingford CT 06492
  
  
 ---------------------------------------------------------------
 Warning -- This program may not be used in any manner that
 competes with the business of Gaussian, Inc. or will provide
 assistance to any competitor of Gaussian, Inc.  The licensee
 of this program is prohibited from giving any competitor of
 Gaussian, Inc. access to this program.  By using this program,
 the user acknowledges that Gaussian, Inc. is engaged in the
 business of creating and licensing software in the field of
 computational chemistry and represents and warrants to the
 licensee that it is not a competitor of Gaussian, Inc. and that
 it will not use this program in any manner prohibited above.
 ---------------------------------------------------------------
  

 Cite this work as:
 Gaussian 09, Revision D.01,
 M. J. Frisch, G. W. Trucks, H. B. Schlegel, G. E. Scuseria, 
 M. A. Robb, J. R. Cheeseman, G. Scalmani, V. Barone, B. Mennucci, 
 G. A. Petersson, H. Nakatsuji, M. Caricato, X. Li, H. P. Hratchian, 
 A. F. Izmaylov, J. Bloino, G. Zheng, J. L. Sonnenberg, M. Hada, 
 M. Ehara, K. Toyota, R. Fukuda, J. Hasegawa, M. Ishida, T. Nakajima, 
 Y. Honda, O. Kitao, H. Nakai, T. Vreven, J. A. Montgomery, Jr., 
 J. E. Peralta, F. Ogliaro, M. Bearpark, J. J. Heyd, E. Brothers, 
 K. N. Kudin, V. N. Staroverov, T. Keith, R. Kobayashi, J. Normand, 
 K. Raghavachari, A. Rendell, J. C. Burant, S. S. Iyengar, J. Tomasi, 
 M. Cossi, N. Rega, J. M. Millam, M. Klene, J. E. Knox, J. B. Cross, 
 V. Bakken, C. Adamo, J. Jaramillo, R. Gomperts, R. E. Stratmann, 
 O. Yazyev, A. J. Austin, R. Cammi, C. Pomelli, J. W. Ochterski, 
 R. L. Martin, K. Morokuma, V. G. Zakrzewski, G. A. Voth, 
 P. Salvador, J. J. Dannenberg, S. Dapprich, A. D. Daniels, 
 O. Farkas, J. B. Foresman, J. V. Ortiz, J. Cioslowski, 
 and D. J. Fox, Gaussian, Inc., Wallingford CT, 2013.
 
 ******************************************
 Gaussian 09:  ES64L-G09RevD.01 24-Apr-2013
                29-Jan-2015 
 ******************************************
 %chk=dimer_scan
 %nprocs=2
 Will use up to    2 processors via shared memory.
 --------------------------------------------------------
 #PBEPBE/6-31G* EmpiricalDispersion=GD2 opt(addredundant)
 --------------------------------------------------------
 1/14=-1,18=120,19=15,26=3,38=1/1,3;
 2/9=110,12=2,17=6,18=5,40=1/2;
 3/5=1,6=6,7=1,11=2,16=1,25=1,30=1,71=1,74=1009,124=21/1,2,3;
 4//1;
 5/5=2,38=5/2;
 6/7=2,8=2,9=2,10=2,28=1/1;
 7//1,2,3,16;
 1/14=-1,18=20,19=15,26=3/3(2);
 2/9=110/2;
 99//99;
 2/9=110/2;
 3/5=1,6=6,7=1,11=2,16=1,25=1,30=1,71=1,74=1009,124=21/1,2,3;
 4/5=5,16=3,69=1/1;
 5/5=2,38=5/2;
 7//1,2,3,16;
 1/14=-1,18=20,19=15,26=3/3(-5);
 2/9=110/2;
 6/7=2,8=2,9=2,10=2,19=2,28=1/1;
 99/9=1/99;
 Leave Link    1 at Thu Jan 29 10:50:01 2015, MaxMem=           0 cpu:         0.1
 (Enter /appl/chem/G09RevD.01/g09/l101.exe)
 -------
 dimeeri
 -------
 Symbolic Z-matrix:
 Charge =  0 Multiplicity = 1
 O                     0.17546   0.53165   2.62704 
 H                    -0.58714   0.68138   2.03105 
 H                     0.94041   0.63408   2.02402 
 O                     0.27973   3.31518   2.43275 
 H                     0.24336   2.42172   2.85066 
 H                     0.32419   3.92459   3.19359 
 
 Add virtual bond connecting atoms H5         and O1         Dist= 3.60D+00.
 The following ModRedundant input section has been read:
 B       1       4 S  10 0.1000                                                
 
 Add atom      1 valence  3 ND=      2 dihedral       2      1      3      5
 NAtoms=      6 NQM=        6 NQMF=       0 NMMI=      0 NMMIF=      0
                NMic=       0 NMicF=      0.
                    Isotopes and Nuclear Properties:
 (Nuclear quadrupole moments (NQMom) in fm**2, nuclear magnetic moments (NMagM)
  in nuclear magnetons)

  Atom         1           2           3           4           5           6
 IAtWgt=          16           1           1          16           1           1
 AtmWgt=  15.9949146   1.0078250   1.0078250  15.9949146   1.0078250   1.0078250
 NucSpn=           0           1           1           0           1           1
 AtZEff=   0.0000000   0.0000000   0.0000000   0.0000000   0.0000000   0.0000000
 NQMom=    0.0000000   0.0000000   0.0000000   0.0000000   0.0000000   0.0000000
 NMagM=    0.0000000   2.7928460   2.7928460   0.0000000   2.7928460   2.7928460
 AtZNuc=   8.0000000   1.0000000   1.0000000   8.0000000   1.0000000   1.0000000
 Leave Link  101 at Thu Jan 29 10:50:01 2015, MaxMem=    33554432 cpu:         0.3
 (Enter /appl/chem/G09RevD.01/g09/l103.exe)

 GradGradGradGradGradGradGradGradGradGradGradGradGradGradGradGradGradGrad
 Berny optimization.
 Initialization pass.
                           ----------------------------
                           !    Initial Parameters    !
                           ! (Angstroms and Degrees)  !
 --------------------------                            --------------------------
 ! Name  Definition              Value          Derivative Info.                !
 --------------------------------------------------------------------------------
 ! R1    R(1,2)                  0.9794         estimate D2E/DX2                !
 ! R2    R(1,3)                  0.9794         estimate D2E/DX2                !
 ! R3    R(1,4)                  2.7923         Scan                            !
 ! R4    R(1,5)                  1.9045         estimate D2E/DX2                !
 ! R5    R(4,5)                  0.987          estimate D2E/DX2                !
 ! R6    R(4,6)                  0.9758         estimate D2E/DX2                !
 ! A1    A(2,1,3)              102.5615         estimate D2E/DX2                !
 ! A2    A(2,1,5)               86.9899         estimate D2E/DX2                !
 ! A3    A(3,1,5)               86.5984         estimate D2E/DX2                !
 ! A4    A(5,4,6)              103.7007         estimate D2E/DX2                !
 ! A5    A(1,5,4)              148.2058         estimate D2E/DX2                !
 ! D1    D(2,1,3,5)             86.1503         estimate D2E/DX2                !
 ! D2    D(2,1,5,4)            -52.1663         estimate D2E/DX2                !
 ! D3    D(3,1,5,4)             50.619          estimate D2E/DX2                !
 ! D4    D(6,4,5,1)           -178.2971         estimate D2E/DX2                !
 --------------------------------------------------------------------------------
 Trust Radius=3.00D-01 FncErr=1.00D-07 GrdErr=1.00D-06
 Number of optimizations in scan=  11
 Number of steps in this run=     25 maximum allowed number of steps=    100.
 GradGradGradGradGradGradGradGradGradGradGradGradGradGradGradGradGradGrad

 Leave Link  103 at Thu Jan 29 10:50:01 2015, MaxMem=    33554432 cpu:         0.0
 (Enter /appl/chem/G09RevD.01/g09/l202.exe)
                          Input orientation:                          
 ---------------------------------------------------------------------
 Center     Atomic      Atomic             Coordinates (Angstroms)
 Number     Number       Type             X           Y           Z
 ---------------------------------------------------------------------
      1          8           0        0.175463    0.531651    2.627038
      2          1           0       -0.587143    0.681382    2.031046
      3          1           0        0.940407    0.634076    2.024019
      4          8           0        0.279728    3.315182    2.432746
      5          1           0        0.243357    2.421720    2.850664
      6          1           0        0.324188    3.924589    3.193588
 ---------------------------------------------------------------------
                    Distance matrix (angstroms):
                    1          2          3          4          5
     1  O    0.000000
     2  H    0.979385   0.000000
     3  H    0.979420   1.528299   0.000000
     4  O    2.792251   2.801737   2.791395   0.000000
     5  H    1.904463   2.095300   2.089233   0.987042   0.000000
     6  H    3.443127   3.563765   3.546138   0.975825   1.543614
                    6
     6  H    0.000000
 Stoichiometry    H4O2
 Framework group  C1[X(H4O2)]
 Deg. of freedom    12
 Full point group                 C1      NOp   1
 Largest Abelian subgroup         C1      NOp   1
 Largest concise Abelian subgroup C1      NOp   1
                         Standard orientation:                         
 ---------------------------------------------------------------------
 Center     Atomic      Atomic             Coordinates (Angstroms)
 Number     Number       Type             X           Y           Z
 ---------------------------------------------------------------------
      1          8           0        1.389417   -0.111861   -0.044602
      2          1           0        1.279097    0.734329   -0.525214
      3          1           0        1.266906    0.156136    0.889438
      4          8           0       -1.392596    0.110483    0.042769
      5          1           0       -0.505199   -0.288220   -0.124012
      6          1           0       -2.015373   -0.591222   -0.225546
 ---------------------------------------------------------------------
 Rotational constants (GHZ):    202.0987965      7.1388797      7.1239622
 Leave Link  202 at Thu Jan 29 10:50:01 2015, MaxMem=    33554432 cpu:         0.0
 (Enter /appl/chem/G09RevD.01/g09/l301.exe)
 Standard basis: 6-31G(d) (6D, 7F)
 Ernie: Thresh=  0.10000D-02 Tol=  0.10000D-05 Strict=F.
 There are    38 symmetry adapted cartesian basis functions of A   symmetry.
 There are    38 symmetry adapted basis functions of A   symmetry.
    38 basis functions,    72 primitive gaussians,    38 cartesian basis functions
    10 alpha electrons       10 beta electrons
       nuclear repulsion energy        37.3738761975 Hartrees.
 IExCor= 1009 DFT=T Ex=PBE Corr=PBE ExCW=0 ScaHFX=  0.000000
 ScaDFX=  1.000000  1.000000  1.000000  1.000000 ScalE2=  1.000000  1.000000
 IRadAn=      0 IRanWt=     -1 IRanGd=            0 ICorTp=0 IEmpDi=121
 NAtoms=    6 NActive=    6 NUniq=    6 SFac= 1.00D+00 NAtFMM=   60 NAOKFM=F Big=F
 Integral buffers will be    131072 words long.
 Raffenetti 2 integral format.
 Two-electron integral symmetry is turned on.
 R6Disp:  Grimme-D2 Dispersion energy=       -0.0015337873 Hartrees.
 Nuclear repulsion after empirical dispersion term =       37.3723424102 Hartrees.
 Leave Link  301 at Thu Jan 29 10:50:01 2015, MaxMem=    33554432 cpu:         0.1
 (Enter /appl/chem/G09RevD.01/g09/l302.exe)
 NPDir=0 NMtPBC=     1 NCelOv=     1 NCel=       1 NClECP=     1 NCelD=      1
         NCelK=      1 NCelE2=     1 NClLst=     1 CellRange=     0.0.
 One-electron integrals computed using PRISM.
 NBasis=    38 RedAO= T EigKep=  1.67D-02  NBF=    38
 NBsUse=    38 1.00D-06 EigRej= -1.00D+00 NBFU=    38
 Precomputing XC quadrature grid using
 IXCGrd= 4 IRadAn=           0 IRanWt=          -1 IRanGd=           0 AccXCQ= 0.00D+00.
 Generated NRdTot=       0 NPtTot=           0 NUsed=           0 NTot=          32
 NSgBfM=    38    38    38    38    38 MxSgAt=     6 MxSgA2=     6.
 Leave Link  302 at Thu Jan 29 10:50:02 2015, MaxMem=    33554432 cpu:         0.4
 (Enter /appl/chem/G09RevD.01/g09/l303.exe)
 DipDrv:  MaxL=1.
 Leave Link  303 at Thu Jan 29 10:50:02 2015, MaxMem=    33554432 cpu:         0.1
 (Enter /appl/chem/G09RevD.01/g09/l401.exe)
 ExpMin= 1.61D-01 ExpMax= 5.48D+03 ExpMxC= 8.25D+02 IAcc=1 IRadAn=         1 AccDes= 0.00D+00
 Harris functional with IExCor= 1009 and IRadAn=       1 diagonalized for initial guess.
 HarFok:  IExCor= 1009 AccDes= 0.00D+00 IRadAn=         1 IDoV= 1 UseB2=F ITyADJ=14
 ICtDFT=  3500011 ScaDFX=  1.000000  1.000000  1.000000  1.000000
 FoFCou: FMM=F IPFlag=           0 FMFlag=      100000 FMFlg1=           0
         NFxFlg=           0 DoJE=T BraDBF=F KetDBF=T FulRan=T
         wScrn=  0.000000 ICntrl=     500 IOpCl=  0 I1Cent=   200000004 NGrid=           0
         NMat0=    1 NMatS0=      1 NMatT0=    0 NMatD0=    1 NMtDS0=    0 NMtDT0=    0
 Petite list used in FoFCou.
 Harris En= -152.747901082142    
 JPrj=0 DoOrth=F DoCkMO=F.
 Leave Link  401 at Thu Jan 29 10:50:02 2015, MaxMem=    33554432 cpu:         0.4
 (Enter /appl/chem/G09RevD.01/g09/l502.exe)
 Closed shell SCF:
 Using DIIS extrapolation, IDIIS=  1040.
 Integral symmetry usage will be decided dynamically.
 Keep J ints in memory in canonical form, NReq=1158825.
 IVT=       23404 IEndB=       23404 NGot=    33554432 MDV=    33256118
 LenX=    33256118 LenY=    33254233
 Requested convergence on RMS density matrix=1.00D-08 within 128 cycles.
 Requested convergence on MAX density matrix=1.00D-06.
 Requested convergence on             energy=1.00D-06.
 No special actions if energy rises.
 FoFCou: FMM=F IPFlag=           0 FMFlag=           0 FMFlg1=           0
         NFxFlg=           0 DoJE=F BraDBF=F KetDBF=F FulRan=T
         wScrn=  0.000000 ICntrl=     600 IOpCl=  0 I1Cent=           0 NGrid=           0
         NMat0=    1 NMatS0=    741 NMatT0=    0 NMatD0=    1 NMtDS0=    0 NMtDT0=    0
 Symmetry not used in FoFCou.
 Integral accuracy reduced to 1.0D-05 until final iterations.

 Cycle   1  Pass 0  IDiag  1:
 E= -152.532767719077    
 DIIS: error= 7.37D-02 at cycle   1 NSaved=   1.
 NSaved= 1 IEnMin= 1 EnMin= -152.532767719077     IErMin= 1 ErrMin= 7.37D-02
 ErrMax= 7.37D-02  0.00D+00 EMaxC= 1.00D-01 BMatC= 1.67D-01 BMatP= 1.67D-01
 IDIUse=3 WtCom= 2.63D-01 WtEn= 7.37D-01
 Coeff-Com:  0.100D+01
 Coeff-En:   0.100D+01
 Coeff:      0.100D+01
 Gap=     0.099 Goal=   None    Shift=    0.000
 GapD=    0.099 DampG=0.500 DampE=0.500 DampFc=0.2500 IDamp=-1.
 Damping current iteration by 2.50D-01
 RMSDP=2.37D-02 MaxDP=3.10D-01              OVMax= 2.17D-01

 Cycle   2  Pass 0  IDiag  1:
 E= -152.581469719036     Delta-E=       -0.048701999959 Rises=F Damp=T
 DIIS: error= 2.37D-02 at cycle   2 NSaved=   2.
 NSaved= 2 IEnMin= 2 EnMin= -152.581469719036     IErMin= 2 ErrMin= 2.37D-02
 ErrMax= 2.37D-02  0.00D+00 EMaxC= 1.00D-01 BMatC= 1.70D-02 BMatP= 1.67D-01
 IDIUse=3 WtCom= 7.63D-01 WtEn= 2.37D-01
 Coeff-Com: -0.441D+00 0.144D+01
 Coeff-En:   0.000D+00 0.100D+01
 Coeff:     -0.336D+00 0.134D+01
 Gap=     0.204 Goal=   None    Shift=    0.000
 RMSDP=3.88D-03 MaxDP=3.72D-02 DE=-4.87D-02 OVMax= 1.34D-01

 Cycle   3  Pass 0  IDiag  1:
 E= -152.657847188809     Delta-E=       -0.076377469773 Rises=F Damp=F
 DIIS: error= 1.21D-02 at cycle   3 NSaved=   3.
 NSaved= 3 IEnMin= 3 EnMin= -152.657847188809     IErMin= 3 ErrMin= 1.21D-02
 ErrMax= 1.21D-02  0.00D+00 EMaxC= 1.00D-01 BMatC= 3.36D-03 BMatP= 1.70D-02
 IDIUse=3 WtCom= 8.79D-01 WtEn= 1.21D-01
 Coeff-Com:  0.583D-01 0.158D+00 0.784D+00
 Coeff-En:   0.000D+00 0.000D+00 0.100D+01
 Coeff:      0.513D-01 0.139D+00 0.810D+00
 Gap=     0.235 Goal=   None    Shift=    0.000
 RMSDP=1.38D-03 MaxDP=1.88D-02 DE=-7.64D-02 OVMax= 1.80D-02

 Cycle   4  Pass 0  IDiag  1:
 E= -152.659879501994     Delta-E=       -0.002032313185 Rises=F Damp=F
 DIIS: error= 4.96D-03 at cycle   4 NSaved=   4.
 NSaved= 4 IEnMin= 4 EnMin= -152.659879501994     IErMin= 4 ErrMin= 4.96D-03
 ErrMax= 4.96D-03  0.00D+00 EMaxC= 1.00D-01 BMatC= 5.33D-04 BMatP= 3.36D-03
 IDIUse=3 WtCom= 9.50D-01 WtEn= 4.96D-02
 Coeff-Com:  0.830D-01-0.602D-01 0.547D+00 0.430D+00
 Coeff-En:   0.000D+00 0.000D+00 0.969D-01 0.903D+00
 Coeff:      0.789D-01-0.572D-01 0.524D+00 0.454D+00
 Gap=     0.228 Goal=   None    Shift=    0.000
 RMSDP=4.84D-04 MaxDP=5.22D-03 DE=-2.03D-03 OVMax= 5.56D-03

 Cycle   5  Pass 0  IDiag  1:
 E= -152.660255352725     Delta-E=       -0.000375850731 Rises=F Damp=F
 DIIS: error= 6.99D-04 at cycle   5 NSaved=   5.
 NSaved= 5 IEnMin= 5 EnMin= -152.660255352725     IErMin= 5 ErrMin= 6.99D-04
 ErrMax= 6.99D-04  0.00D+00 EMaxC= 1.00D-01 BMatC= 1.10D-05 BMatP= 5.33D-04
 IDIUse=3 WtCom= 9.93D-01 WtEn= 6.99D-03
 Coeff-Com:  0.246D-01-0.318D-01 0.126D+00 0.189D+00 0.692D+00
 Coeff-En:   0.000D+00 0.000D+00 0.000D+00 0.000D+00 0.100D+01
 Coeff:      0.244D-01-0.315D-01 0.125D+00 0.188D+00 0.694D+00
 Gap=     0.229 Goal=   None    Shift=    0.000
 RMSDP=6.03D-05 MaxDP=6.07D-04 DE=-3.76D-04 OVMax= 5.62D-04

 Cycle   6  Pass 0  IDiag  1:
 E= -152.660263315459     Delta-E=       -0.000007962735 Rises=F Damp=F
 DIIS: error= 3.46D-05 at cycle   6 NSaved=   6.
 NSaved= 6 IEnMin= 6 EnMin= -152.660263315459     IErMin= 6 ErrMin= 3.46D-05
 ErrMax= 3.46D-05  0.00D+00 EMaxC= 1.00D-01 BMatC= 4.50D-08 BMatP= 1.10D-05
 IDIUse=1 WtCom= 1.00D+00 WtEn= 0.00D+00
 Coeff-Com:  0.463D-02-0.565D-02 0.209D-01 0.288D-01 0.121D+00 0.830D+00
 Coeff:      0.463D-02-0.565D-02 0.209D-01 0.288D-01 0.121D+00 0.830D+00
 Gap=     0.229 Goal=   None    Shift=    0.000
 RMSDP=4.41D-06 MaxDP=5.41D-05 DE=-7.96D-06 OVMax= 4.13D-05

 Initial convergence to 1.0D-05 achieved.  Increase integral accuracy.
 Cycle   7  Pass 1  IDiag  1:
 E= -152.660246840372     Delta-E=        0.000016475087 Rises=F Damp=F
 DIIS: error= 7.52D-06 at cycle   1 NSaved=   1.
 NSaved= 1 IEnMin= 1 EnMin= -152.660246840372     IErMin= 1 ErrMin= 7.52D-06
 ErrMax= 7.52D-06  0.00D+00 EMaxC= 1.00D-01 BMatC= 2.98D-09 BMatP= 2.98D-09
 IDIUse=1 WtCom= 1.00D+00 WtEn= 0.00D+00
 Coeff-Com:  0.100D+01
 Coeff:      0.100D+01
 Gap=     0.229 Goal=   None    Shift=    0.000
 RMSDP=4.41D-06 MaxDP=5.41D-05 DE= 1.65D-05 OVMax= 2.80D-05

 Cycle   8  Pass 1  IDiag  1:
 E= -152.660246838374     Delta-E=        0.000000001998 Rises=F Damp=F
 DIIS: error= 1.29D-05 at cycle   2 NSaved=   2.
 NSaved= 2 IEnMin= 1 EnMin= -152.660246840372     IErMin= 1 ErrMin= 7.52D-06
 ErrMax= 1.29D-05  0.00D+00 EMaxC= 1.00D-01 BMatC= 6.05D-09 BMatP= 2.98D-09
 IDIUse=1 WtCom= 1.00D+00 WtEn= 0.00D+00
 Coeff-Com:  0.592D+00 0.408D+00
 Coeff:      0.592D+00 0.408D+00
 Gap=     0.229 Goal=   None    Shift=    0.000
 RMSDP=1.58D-06 MaxDP=1.65D-05 DE= 2.00D-09 OVMax= 1.62D-05

 Cycle   9  Pass 1  IDiag  1:
 E= -152.660246842683     Delta-E=       -0.000000004309 Rises=F Damp=F
 DIIS: error= 1.56D-06 at cycle   3 NSaved=   3.
 NSaved= 3 IEnMin= 3 EnMin= -152.660246842683     IErMin= 3 ErrMin= 1.56D-06
 ErrMax= 1.56D-06  0.00D+00 EMaxC= 1.00D-01 BMatC= 1.15D-10 BMatP= 2.98D-09
 IDIUse=1 WtCom= 1.00D+00 WtEn= 0.00D+00
 Coeff-Com:  0.163D+00 0.173D+00 0.665D+00
 Coeff:      0.163D+00 0.173D+00 0.665D+00
 Gap=     0.229 Goal=   None    Shift=    0.000
 RMSDP=2.48D-07 MaxDP=2.03D-06 DE=-4.31D-09 OVMax= 3.26D-06

 Cycle  10  Pass 1  IDiag  1:
 E= -152.660246842767     Delta-E=       -0.000000000084 Rises=F Damp=F
 DIIS: error= 3.70D-07 at cycle   4 NSaved=   4.
 NSaved= 4 IEnMin= 4 EnMin= -152.660246842767     IErMin= 4 ErrMin= 3.70D-07
 ErrMax= 3.70D-07  0.00D+00 EMaxC= 1.00D-01 BMatC= 5.52D-12 BMatP= 1.15D-10
 IDIUse=1 WtCom= 1.00D+00 WtEn= 0.00D+00
 Coeff-Com:  0.209D-01 0.397D-01 0.241D+00 0.698D+00
 Coeff:      0.209D-01 0.397D-01 0.241D+00 0.698D+00
 Gap=     0.229 Goal=   None    Shift=    0.000
 RMSDP=7.42D-08 MaxDP=5.90D-07 DE=-8.42D-11 OVMax= 8.19D-07

 Cycle  11  Pass 1  IDiag  1:
 E= -152.660246842769     Delta-E=       -0.000000000002 Rises=F Damp=F
 DIIS: error= 2.83D-07 at cycle   5 NSaved=   5.
 NSaved= 5 IEnMin= 5 EnMin= -152.660246842769     IErMin= 5 ErrMin= 2.83D-07
 ErrMax= 2.83D-07  0.00D+00 EMaxC= 1.00D-01 BMatC= 2.85D-12 BMatP= 5.52D-12
 IDIUse=1 WtCom= 1.00D+00 WtEn= 0.00D+00
 Coeff-Com:  0.120D-02 0.137D-01 0.114D+00 0.471D+00 0.400D+00
 Coeff:      0.120D-02 0.137D-01 0.114D+00 0.471D+00 0.400D+00
 Gap=     0.229 Goal=   None    Shift=    0.000
 RMSDP=3.26D-08 MaxDP=2.62D-07 DE=-2.42D-12 OVMax= 3.95D-07

 Cycle  12  Pass 1  IDiag  1:
 E= -152.660246842771     Delta-E=       -0.000000000002 Rises=F Damp=F
 DIIS: error= 7.99D-09 at cycle   6 NSaved=   6.
 NSaved= 6 IEnMin= 6 EnMin= -152.660246842771     IErMin= 6 ErrMin= 7.99D-09
 ErrMax= 7.99D-09  0.00D+00 EMaxC= 1.00D-01 BMatC= 2.62D-15 BMatP= 2.85D-12
 IDIUse=1 WtCom= 1.00D+00 WtEn= 0.00D+00
 Coeff-Com: -0.192D-06 0.311D-02 0.277D-01 0.117D+00 0.110D+00 0.742D+00
 Coeff:     -0.192D-06 0.311D-02 0.277D-01 0.117D+00 0.110D+00 0.742D+00
 Gap=     0.229 Goal=   None    Shift=    0.000
 RMSDP=1.02D-09 MaxDP=9.60D-09 DE=-1.85D-12 OVMax= 1.50D-08

 SCF Done:  E(RPBE-PBE) =  -152.660246843     A.U. after   12 cycles
            NFock= 12  Conv=0.10D-08     -V/T= 2.0080
 KE= 1.514558602790D+02 PE=-4.355759470078D+02 EE= 9.408749747579D+01
 Leave Link  502 at Thu Jan 29 10:50:03 2015, MaxMem=    33554432 cpu:         2.2
 (Enter /appl/chem/G09RevD.01/g09/l601.exe)
 Copying SCF densities to generalized density rwf, IOpCl= 0 IROHF=0.

 **********************************************************************

            Population analysis using the SCF density.

 **********************************************************************

 Orbital symmetries:
       Occupied  (A) (A) (A) (A) (A) (A) (A) (A) (A) (A)
       Virtual   (A) (A) (A) (A) (A) (A) (A) (A) (A) (A) (A) (A)
                 (A) (A) (A) (A) (A) (A) (A) (A) (A) (A) (A) (A)
                 (A) (A) (A) (A)
 The electronic state is 1-A.
 Alpha  occ. eigenvalues --  -18.79317 -18.73297  -0.93675  -0.87837  -0.48471
 Alpha  occ. eigenvalues --   -0.43887  -0.34704  -0.29725  -0.25952  -0.20875
 Alpha virt. eigenvalues --    0.01976   0.08150   0.10397   0.19046   0.68902
 Alpha virt. eigenvalues --    0.74317   0.77265   0.79478   0.83653   0.87072
 Alpha virt. eigenvalues --    0.87909   0.94778   0.98155   1.04735   1.14846
 Alpha virt. eigenvalues --    1.38942   1.64139   1.64368   1.67969   1.68758
 Alpha virt. eigenvalues --    1.69904   1.73016   2.15521   2.26700   2.44883
 Alpha virt. eigenvalues --    2.50687   3.47542   3.55407
          Condensed to atoms (all electrons):
               1          2          3          4          5          6
     1  O    8.213093   0.236334   0.236133  -0.021708   0.068273   0.000642
     2  H    0.236334   0.384307  -0.020510   0.004822  -0.007147  -0.000139
     3  H    0.236133  -0.020510   0.384514   0.005162  -0.007363  -0.000142
     4  O   -0.021708   0.004822   0.005162   8.409344   0.187983   0.230524
     5  H    0.068273  -0.007147  -0.007363   0.187983   0.400375  -0.014309
     6  H    0.000642  -0.000139  -0.000142   0.230524  -0.014309   0.411261
 Mulliken charges:
               1
     1  O   -0.732767
     2  H    0.402333
     3  H    0.402207
     4  O   -0.816126
     5  H    0.372188
     6  H    0.372164
 Sum of Mulliken charges =   0.00000
 Mulliken charges with hydrogens summed into heavy atoms:
               1
     1  O    0.071774
     4  O   -0.071774
 Electronic spatial extent (au):  <R**2>=            173.7217
 Charge=              0.0000 electrons
 Dipole moment (field-independent basis, Debye):
    X=              0.7476    Y=              0.0794    Z=              0.0545  Tot=              0.7538
 Quadrupole moment (field-independent basis, Debye-Ang):
   XX=            -13.7761   YY=            -11.9372   ZZ=            -11.6209
   XY=              5.4378   XZ=              2.1204   YZ=             -0.1842
 Traceless Quadrupole moment (field-independent basis, Debye-Ang):
   XX=             -1.3313   YY=              0.5075   ZZ=              0.8238
   XY=              5.4378   XZ=              2.1204   YZ=             -0.1842
 Octapole moment (field-independent basis, Debye-Ang**2):
  XXX=             -8.0688  YYY=              0.3997  ZZZ=              0.9547  XYY=              0.4236
  XXY=             -2.1000  XXZ=             -0.7731  XZZ=              3.5082  YZZ=              0.5167
  YYZ=             -0.5562  XYZ=             -1.4711
 Hexadecapole moment (field-independent basis, Debye-Ang**3):
 XXXX=           -154.5267 YYYY=            -12.4444 ZZZZ=            -11.3674 XXXY=             15.9788
 XXXZ=              6.0411 YYYX=              3.8120 YYYZ=             -0.4474 ZZZX=              2.1444
 ZZZY=             -0.0602 XXYY=            -25.9646 XXZZ=            -26.5928 YYZZ=             -3.9694
 XXYZ=              0.1822 YYXZ=             -0.0411 ZZXY=              1.5744
 N-N= 3.737234241024D+01 E-N=-4.355759469317D+02  KE= 1.514558602790D+02
 No NMR shielding tensors so no spin-rotation constants.
 Leave Link  601 at Thu Jan 29 10:50:03 2015, MaxMem=    33554432 cpu:         0.3
 (Enter /appl/chem/G09RevD.01/g09/l701.exe)
 Compute integral first derivatives.
 ... and contract with generalized density number  0.
 R6Disp: Adding Grimme-D2 dispersion energy 1st derivatives to the gradient.
 Leave Link  701 at Thu Jan 29 10:50:03 2015, MaxMem=    33554432 cpu:         0.3
 (Enter /appl/chem/G09RevD.01/g09/l702.exe)
 L702 exits ... SP integral derivatives will be done elsewhere.
 Leave Link  702 at Thu Jan 29 10:50:03 2015, MaxMem=    33554432 cpu:         0.1
 (Enter /appl/chem/G09RevD.01/g09/l703.exe)
 Compute integral first derivatives, UseDBF=F ICtDFT=           0.
 Integral derivatives from FoFJK, PRISM(SPDF).
 Calling FoFJK, ICntrl=      2527 FMM=F ISym2X=0 I1Cent= 0 IOpClX= 0 NMat=1 NMatS=1 NMatT=0.
 FoFJK:  IHMeth= 1 ICntrl=    2527 DoSepK=F KAlg= 0 I1Cent=   0 FoldK=F
 IRaf=         0 NMat=   1 IRICut=       1 DoRegI=T DoRafI=F ISym2E= 0.
 FoFCou: FMM=F IPFlag=           0 FMFlag=      100000 FMFlg1=         800
         NFxFlg=           0 DoJE=F BraDBF=F KetDBF=F FulRan=T
         wScrn=  0.000000 ICntrl=    2527 IOpCl=  0 I1Cent=           0 NGrid=           0
         NMat0=    1 NMatS0=      1 NMatT0=    0 NMatD0=    1 NMtDS0=    0 NMtDT0=    0
 Symmetry not used in FoFCou.
 Leave Link  703 at Thu Jan 29 10:50:04 2015, MaxMem=    33554432 cpu:         0.7
 (Enter /appl/chem/G09RevD.01/g09/l716.exe)
 Dipole        = 2.94142007D-01 3.12264023D-02 2.14312545D-02
 ***** Axes restored to original set *****
 -------------------------------------------------------------------
 Center     Atomic                   Forces (Hartrees/Bohr)
 Number     Number              X              Y              Z
 -------------------------------------------------------------------
      1        8           0.000003775    0.000012031   -0.000052544
      2        1           0.000018540   -0.000005537    0.000028415
      3        1          -0.000015334   -0.000001679    0.000026999
      4        8           0.000002503   -0.000010420    0.000021068
      5        1          -0.000021255    0.000008778   -0.000012461
      6        1           0.000011770   -0.000003172   -0.000011477
 -------------------------------------------------------------------
 Cartesian Forces:  Max     0.000052544 RMS     0.000019137
 Leave Link  716 at Thu Jan 29 10:50:04 2015, MaxMem=    33554432 cpu:         0.1
 (Enter /appl/chem/G09RevD.01/g09/l103.exe)

 GradGradGradGradGradGradGradGradGradGradGradGradGradGradGradGradGradGrad
 Berny optimization.
 FormGI is forming the generalized inverse of G from B-inverse, IUseBI=4.
 Internal  Forces:  Max     0.000032922 RMS     0.000013942
 Search for a local minimum.
 Step number   1 out of a maximum of   25 on scan point     1 out of    11
 All quantities printed in internal units (Hartrees-Bohrs-Radians)
 RMS Force = .14277D-04 SwitMx=.10000D-02 MixMth= 2
 Mixed Optimization -- En-DIIS/RFO-DIIS
 Second derivative matrix not updated -- first step.
 The second derivative matrix:
                          R1        R2        R3        R4        R5
           R1           0.51504
           R2           0.00000   0.51498
           R3           0.00000   0.00000   0.02355
           R4           0.00000   0.00000   0.00000   0.05066
           R5           0.00000   0.00000   0.00000   0.00000   0.50041
           R6           0.00000   0.00000   0.00000   0.00000   0.00000
           A1           0.00000   0.00000   0.00000   0.00000   0.00000
           A2           0.00000   0.00000   0.00000   0.00000   0.00000
           A3           0.00000   0.00000   0.00000   0.00000   0.00000
           A4           0.00000   0.00000   0.00000   0.00000   0.00000
           A5           0.00000   0.00000   0.00000   0.00000   0.00000
           D1           0.00000   0.00000   0.00000   0.00000   0.00000
           D2           0.00000   0.00000   0.00000   0.00000   0.00000
           D3           0.00000   0.00000   0.00000   0.00000   0.00000
           D4           0.00000   0.00000   0.00000   0.00000   0.00000
                          R6        A1        A2        A3        A4
           R6           0.52204
           A1           0.00000   0.16000
           A2           0.00000   0.00000   0.16000
           A3           0.00000   0.00000   0.00000   0.16000
           A4           0.00000   0.00000   0.00000   0.00000   0.16000
           A5           0.00000   0.00000   0.00000   0.00000   0.00000
           D1           0.00000   0.00000   0.00000   0.00000   0.00000
           D2           0.00000   0.00000   0.00000   0.00000   0.00000
           D3           0.00000   0.00000   0.00000   0.00000   0.00000
           D4           0.00000   0.00000   0.00000   0.00000   0.00000
                          A5        D1        D2        D3        D4
           A5           0.25000
           D1           0.00000   0.01301
           D2           0.00000   0.00000   0.00230
           D3           0.00000   0.00000   0.00000   0.00230
           D4           0.00000   0.00000   0.00000   0.00000   0.01200
 ITU=  0
     Eigenvalues ---    0.00230   0.01200   0.08166   0.10848   0.16000
     Eigenvalues ---    0.16000   0.16888   0.37097   0.51498   0.51504
     Eigenvalues ---    0.522041000.000001000.000001000.000001000.00000
 RFO step:  Lambda=-4.16199264D-08 EMin= 2.30000000D-03
 Linear search not attempted -- first point.
 Iteration  1 RMS(Cart)=  0.00060075 RMS(Int)=  0.00000059
 Iteration  2 RMS(Cart)=  0.00000049 RMS(Int)=  0.00000000
 Iteration  1 RMS(Cart)=  0.00000000 RMS(Int)=  0.00000000
 ITry= 1 IFail=0 DXMaxC= 1.58D-03 DCOld= 1.00D+10 DXMaxT= 3.00D-01 DXLimC= 3.00D+00 Rises=F
 Variable       Old X    -DE/DX   Delta X   Delta X   Delta X     New X
                                 (Linear)    (Quad)   (Total)
    R1        1.85077  -0.00003   0.00000  -0.00006  -0.00006   1.85070
    R2        1.85083  -0.00003   0.00000  -0.00005  -0.00005   1.85078
    R3        5.27659  -0.00001   0.00000   0.00000   0.00000   5.27659
    R4        3.59891   0.00000   0.00000   0.00001   0.00001   3.59893
    R5        1.86524  -0.00001   0.00000  -0.00002  -0.00002   1.86522
    R6        1.84404  -0.00001   0.00000  -0.00002  -0.00002   1.84402
    A1        1.79004   0.00001   0.00000   0.00013   0.00013   1.79016
    A2        1.51826   0.00000   0.00000  -0.00001  -0.00001   1.51825
    A3        1.51143  -0.00001   0.00000  -0.00004  -0.00004   1.51138
    A4        1.80992   0.00001   0.00000   0.00005   0.00005   1.80997
    A5        2.58668   0.00000   0.00000   0.00001   0.00001   2.58669
    D1        1.50361   0.00000   0.00000  -0.00003  -0.00003   1.50358
    D2       -0.91047  -0.00001   0.00000   0.00029   0.00029  -0.91018
    D3        0.88347   0.00001   0.00000   0.00042   0.00042   0.88389
    D4       -3.11187   0.00002   0.00000   0.00167   0.00167  -3.11020
         Item               Value     Threshold  Converged?
 Maximum Force            0.000033     0.000450     YES
 RMS     Force            0.000014     0.000300     YES
 Maximum Displacement     0.001584     0.001800     YES
 RMS     Displacement     0.000601     0.001200     YES
 Predicted change in Energy=-2.080998D-08
 Optimization completed.
    -- Stationary point found.
                           ----------------------------
                           !   Optimized Parameters   !
                           ! (Angstroms and Degrees)  !
 --------------------------                            --------------------------
 ! Name  Definition              Value          Derivative Info.                !
 --------------------------------------------------------------------------------
 ! R1    R(1,2)                  0.9794         -DE/DX =    0.0                 !
 ! R2    R(1,3)                  0.9794         -DE/DX =    0.0                 !
 ! R3    R(1,4)                  2.7923         -DE/DX =    0.0                 !
 ! R4    R(1,5)                  1.9045         -DE/DX =    0.0                 !
 ! R5    R(4,5)                  0.987          -DE/DX =    0.0                 !
 ! R6    R(4,6)                  0.9758         -DE/DX =    0.0                 !
 ! A1    A(2,1,3)              102.5615         -DE/DX =    0.0                 !
 ! A2    A(2,1,5)               86.9899         -DE/DX =    0.0                 !
 ! A3    A(3,1,5)               86.5984         -DE/DX =    0.0                 !
 ! A4    A(5,4,6)              103.7007         -DE/DX =    0.0                 !
 ! A5    A(1,5,4)              148.2058         -DE/DX =    0.0                 !
 ! D1    D(2,1,3,5)             86.1503         -DE/DX =    0.0                 !
 ! D2    D(2,1,5,4)            -52.1663         -DE/DX =    0.0                 !
 ! D3    D(3,1,5,4)             50.619          -DE/DX =    0.0                 !
 ! D4    D(6,4,5,1)           -178.2971         -DE/DX =    0.0                 !
 --------------------------------------------------------------------------------
 Lowest energy point so far.  Saving SCF results.
 Iteration  1 RMS(Cart)=  0.03628196 RMS(Int)=  0.02695328
 Iteration  2 RMS(Cart)=  0.00047602 RMS(Int)=  0.02695116
 Iteration  3 RMS(Cart)=  0.00001338 RMS(Int)=  0.02695116
 Iteration  4 RMS(Cart)=  0.00000090 RMS(Int)=  0.02695116
 Iteration  1 RMS(Cart)=  0.01104879 RMS(Int)=  0.00824593
 Iteration  2 RMS(Cart)=  0.00337708 RMS(Int)=  0.00908068
 Iteration  3 RMS(Cart)=  0.00103431 RMS(Int)=  0.00962622
 Iteration  4 RMS(Cart)=  0.00031698 RMS(Int)=  0.00981500
 Iteration  5 RMS(Cart)=  0.00009716 RMS(Int)=  0.00987472
 Iteration  6 RMS(Cart)=  0.00002978 RMS(Int)=  0.00989319
 Iteration  7 RMS(Cart)=  0.00000913 RMS(Int)=  0.00989887
 Iteration  8 RMS(Cart)=  0.00000280 RMS(Int)=  0.00990062
 Iteration  9 RMS(Cart)=  0.00000086 RMS(Int)=  0.00990115
 GradGradGradGradGradGradGradGradGradGradGradGradGradGradGradGradGradGrad

 Leave Link  103 at Thu Jan 29 10:50:04 2015, MaxMem=    33554432 cpu:         0.2
 (Enter /appl/chem/G09RevD.01/g09/l202.exe)
                          Input orientation:                          
 ---------------------------------------------------------------------
 Center     Atomic      Atomic             Coordinates (Angstroms)
 Number     Number       Type             X           Y           Z
 ---------------------------------------------------------------------
      1          8           0        0.174168    0.498274    2.624958
      2          1           0       -0.588695    0.641009    2.027633
      3          1           0        0.938883    0.593693    2.020545
      4          8           0        0.281587    3.382258    2.434667
      5          1           0        0.243648    2.433902    2.831058
      6          1           0        0.326411    3.959463    3.220238
 ---------------------------------------------------------------------
                    Distance matrix (angstroms):
                    1          2          3          4          5
     1  O    0.000000
     2  H    0.979352   0.000000
     3  H    0.979392   1.528327   0.000000
     4  O    2.892250   2.904740   2.894759   0.000000
     5  H    1.947809   2.133719   2.127593   1.028564   0.000000
     6  H    3.515304   3.643057   3.625299   0.975857   1.576593
                    6
     6  H    0.000000
 Stoichiometry    H4O2
 Framework group  C1[X(H4O2)]
 Deg. of freedom    12
 Full point group                 C1      NOp   1
 RotChk:  IX=0 Diff= 1.91D-01
 Largest Abelian subgroup         C1      NOp   1
 Largest concise Abelian subgroup C1      NOp   1
                         Standard orientation:                         
 ---------------------------------------------------------------------
 Center     Atomic      Atomic             Coordinates (Angstroms)
 Number     Number       Type             X           Y           Z
 ---------------------------------------------------------------------
      1          8           0        1.434497   -0.117226   -0.029265
      2          1           0        1.331746    0.657818   -0.619078
      3          1           0        1.319897    0.275472    0.860602
      4          8           0       -1.447785    0.115888    0.027476
      5          1           0       -0.505626   -0.282855   -0.078754
      6          1           0       -2.039714   -0.639732   -0.148460
 ---------------------------------------------------------------------
 Rotational constants (GHZ):    200.2059099      6.6749025      6.6597809
 Leave Link  202 at Thu Jan 29 10:50:04 2015, MaxMem=    33554432 cpu:         0.0
 (Enter /appl/chem/G09RevD.01/g09/l301.exe)
 Standard basis: 6-31G(d) (6D, 7F)
 Ernie: Thresh=  0.10000D-02 Tol=  0.10000D-05 Strict=F.
 There are    38 symmetry adapted cartesian basis functions of A   symmetry.
 There are    38 symmetry adapted basis functions of A   symmetry.
    38 basis functions,    72 primitive gaussians,    38 cartesian basis functions
    10 alpha electrons       10 beta electrons
       nuclear repulsion energy        36.5762714589 Hartrees.
 IExCor= 1009 DFT=T Ex=PBE Corr=PBE ExCW=0 ScaHFX=  0.000000
 ScaDFX=  1.000000  1.000000  1.000000  1.000000 ScalE2=  1.000000  1.000000
 IRadAn=      0 IRanWt=     -1 IRanGd=            0 ICorTp=0 IEmpDi=121
 NAtoms=    6 NActive=    6 NUniq=    6 SFac= 1.00D+00 NAtFMM=   60 NAOKFM=F Big=F
 Integral buffers will be    131072 words long.
 Raffenetti 2 integral format.
 Two-electron integral symmetry is turned on.
 R6Disp:  Grimme-D2 Dispersion energy=       -0.0014539076 Hartrees.
 Nuclear repulsion after empirical dispersion term =       36.5748175513 Hartrees.
 Leave Link  301 at Thu Jan 29 10:50:04 2015, MaxMem=    33554432 cpu:         0.1
 (Enter /appl/chem/G09RevD.01/g09/l302.exe)
 NPDir=0 NMtPBC=     1 NCelOv=     1 NCel=       1 NClECP=     1 NCelD=      1
         NCelK=      1 NCelE2=     1 NClLst=     1 CellRange=     0.0.
 One-electron integrals computed using PRISM.
 NBasis=    38 RedAO= T EigKep=  1.74D-02  NBF=    38
 NBsUse=    38 1.00D-06 EigRej= -1.00D+00 NBFU=    38
 Precomputing XC quadrature grid using
 IXCGrd= 4 IRadAn=           0 IRanWt=          -1 IRanGd=           0 AccXCQ= 0.00D+00.
 Generated NRdTot=       0 NPtTot=           0 NUsed=           0 NTot=          32
 NSgBfM=    38    38    38    38    38 MxSgAt=     6 MxSgA2=     6.
 Leave Link  302 at Thu Jan 29 10:50:04 2015, MaxMem=    33554432 cpu:         0.4
 (Enter /appl/chem/G09RevD.01/g09/l303.exe)
 DipDrv:  MaxL=1.
 Leave Link  303 at Thu Jan 29 10:50:04 2015, MaxMem=    33554432 cpu:         0.1
 (Enter /appl/chem/G09RevD.01/g09/l401.exe)
 Initial guess from the checkpoint file:  "dimer_scan.chk"
 B after Tr=     0.000000    0.000000    0.000000
         Rot=    0.997710    0.067635    0.000195   -0.000687 Ang=   7.76 deg.
 Guess basis will be translated and rotated to current coordinates.
 JPrj=2 DoOrth=T DoCkMO=T.
 Generating alternative initial guess.
 ExpMin= 1.61D-01 ExpMax= 5.48D+03 ExpMxC= 8.25D+02 IAcc=1 IRadAn=         1 AccDes= 0.00D+00
 Harris functional with IExCor= 1009 and IRadAn=       1 diagonalized for initial guess.
 HarFok:  IExCor= 1009 AccDes= 0.00D+00 IRadAn=         1 IDoV= 1 UseB2=F ITyADJ=14
 ICtDFT=  3500011 ScaDFX=  1.000000  1.000000  1.000000  1.000000
 FoFCou: FMM=F IPFlag=           0 FMFlag=      100000 FMFlg1=           0
         NFxFlg=           0 DoJE=T BraDBF=F KetDBF=T FulRan=T
         wScrn=  0.000000 ICntrl=     500 IOpCl=  0 I1Cent=   200000004 NGrid=           0
         NMat0=    1 NMatS0=      1 NMatT0=    0 NMatD0=    1 NMtDS0=    0 NMtDT0=    0
 Petite list used in FoFCou.
 Harris En= -152.745150046694    
 Leave Link  401 at Thu Jan 29 10:50:05 2015, MaxMem=    33554432 cpu:         0.6
 (Enter /appl/chem/G09RevD.01/g09/l502.exe)
 Closed shell SCF:
 Using DIIS extrapolation, IDIIS=  1040.
 Integral symmetry usage will be decided dynamically.
 Keep J ints in memory in canonical form, NReq=1158825.
 IVT=       23404 IEndB=       23404 NGot=    33554432 MDV=    33256118
 LenX=    33256118 LenY=    33254233
 Requested convergence on RMS density matrix=1.00D-08 within 128 cycles.
 Requested convergence on MAX density matrix=1.00D-06.
 Requested convergence on             energy=1.00D-06.
 No special actions if energy rises.
 FoFCou: FMM=F IPFlag=           0 FMFlag=           0 FMFlg1=           0
         NFxFlg=           0 DoJE=F BraDBF=F KetDBF=F FulRan=T
         wScrn=  0.000000 ICntrl=     600 IOpCl=  0 I1Cent=           0 NGrid=           0
         NMat0=    1 NMatS0=    741 NMatT0=    0 NMatD0=    1 NMtDS0=    0 NMtDT0=    0
 Symmetry not used in FoFCou.
 Integral accuracy reduced to 1.0D-05 until final iterations.

 Cycle   1  Pass 0  IDiag  1:
 E= -152.657939945512    
 DIIS: error= 3.88D-03 at cycle   1 NSaved=   1.
 NSaved= 1 IEnMin= 1 EnMin= -152.657939945512     IErMin= 1 ErrMin= 3.88D-03
 ErrMax= 3.88D-03  0.00D+00 EMaxC= 1.00D-01 BMatC= 5.02D-04 BMatP= 5.02D-04
 IDIUse=3 WtCom= 9.61D-01 WtEn= 3.88D-02
 Coeff-Com:  0.100D+01
 Coeff-En:   0.100D+01
 Coeff:      0.100D+01
 Gap=     0.946 Goal=   None    Shift=    0.000
 GapD=    0.946 DampG=2.000 DampE=1.000 DampFc=2.0000 IDamp=-1.
 RMSDP=1.09D-03 MaxDP=8.92D-03              OVMax= 1.72D-02

 Cycle   2  Pass 0  IDiag  1:
 E= -152.658539803000     Delta-E=       -0.000599857488 Rises=F Damp=F
 DIIS: error= 4.12D-03 at cycle   2 NSaved=   2.
 NSaved= 2 IEnMin= 2 EnMin= -152.658539803000     IErMin= 1 ErrMin= 3.88D-03
 ErrMax= 4.12D-03  0.00D+00 EMaxC= 1.00D-01 BMatC= 3.13D-04 BMatP= 5.02D-04
 IDIUse=3 WtCom= 9.59D-01 WtEn= 4.12D-02
 Coeff-Com:  0.416D+00 0.584D+00
 Coeff-En:   0.000D+00 0.100D+01
 Coeff:      0.399D+00 0.601D+00
 Gap=     0.226 Goal=   None    Shift=    0.000
 RMSDP=5.64D-04 MaxDP=6.49D-03 DE=-6.00D-04 OVMax= 6.96D-03

 Cycle   3  Pass 0  IDiag  1:
 E= -152.658656963262     Delta-E=       -0.000117160262 Rises=F Damp=F
 DIIS: error= 2.92D-03 at cycle   3 NSaved=   3.
 NSaved= 3 IEnMin= 3 EnMin= -152.658656963262     IErMin= 3 ErrMin= 2.92D-03
 ErrMax= 2.92D-03  0.00D+00 EMaxC= 1.00D-01 BMatC= 1.59D-04 BMatP= 3.13D-04
 IDIUse=3 WtCom= 9.71D-01 WtEn= 2.92D-02
 Coeff-Com:  0.320D-01 0.410D+00 0.558D+00
 Coeff-En:   0.000D+00 0.362D+00 0.638D+00
 Coeff:      0.311D-01 0.409D+00 0.560D+00
 Gap=     0.223 Goal=   None    Shift=    0.000
 RMSDP=2.38D-04 MaxDP=2.91D-03 DE=-1.17D-04 OVMax= 3.04D-03

 Cycle   4  Pass 0  IDiag  1:
 E= -152.658769621956     Delta-E=       -0.000112658694 Rises=F Damp=F
 DIIS: error= 1.90D-04 at cycle   4 NSaved=   4.
 NSaved= 4 IEnMin= 4 EnMin= -152.658769621956     IErMin= 4 ErrMin= 1.90D-04
 ErrMax= 1.90D-04  0.00D+00 EMaxC= 1.00D-01 BMatC= 1.77D-06 BMatP= 1.59D-04
 IDIUse=3 WtCom= 9.98D-01 WtEn= 1.90D-03
 Coeff-Com:  0.453D-02 0.152D+00 0.227D+00 0.617D+00
 Coeff-En:   0.000D+00 0.000D+00 0.000D+00 0.100D+01
 Coeff:      0.452D-02 0.151D+00 0.226D+00 0.618D+00
 Gap=     0.223 Goal=   None    Shift=    0.000
 RMSDP=3.69D-05 MaxDP=4.19D-04 DE=-1.13D-04 OVMax= 4.72D-04

 Cycle   5  Pass 0  IDiag  1:
 E= -152.658770440411     Delta-E=       -0.000000818455 Rises=F Damp=F
 DIIS: error= 1.40D-04 at cycle   5 NSaved=   5.
 NSaved= 5 IEnMin= 5 EnMin= -152.658770440411     IErMin= 5 ErrMin= 1.40D-04
 ErrMax= 1.40D-04  0.00D+00 EMaxC= 1.00D-01 BMatC= 6.60D-07 BMatP= 1.77D-06
 IDIUse=3 WtCom= 9.99D-01 WtEn= 1.40D-03
 Coeff-Com:  0.528D-03 0.626D-01 0.969D-01 0.408D+00 0.432D+00
 Coeff-En:   0.000D+00 0.000D+00 0.000D+00 0.281D+00 0.719D+00
 Coeff:      0.527D-03 0.625D-01 0.968D-01 0.408D+00 0.432D+00
 Gap=     0.223 Goal=   None    Shift=    0.000
 RMSDP=1.59D-05 MaxDP=1.76D-04 DE=-8.18D-07 OVMax= 1.93D-04

 Cycle   6  Pass 0  IDiag  1:
 E= -152.658770921816     Delta-E=       -0.000000481405 Rises=F Damp=F
 DIIS: error= 9.05D-06 at cycle   6 NSaved=   6.
 NSaved= 6 IEnMin= 6 EnMin= -152.658770921816     IErMin= 6 ErrMin= 9.05D-06
 ErrMax= 9.05D-06  0.00D+00 EMaxC= 1.00D-01 BMatC= 2.11D-09 BMatP= 6.60D-07
 IDIUse=1 WtCom= 1.00D+00 WtEn= 0.00D+00
 Coeff-Com:  0.389D-04 0.104D-01 0.153D-01 0.870D-01 0.114D+00 0.773D+00
 Coeff:      0.389D-04 0.104D-01 0.153D-01 0.870D-01 0.114D+00 0.773D+00
 Gap=     0.223 Goal=   None    Shift=    0.000
 RMSDP=1.48D-06 MaxDP=1.55D-05 DE=-4.81D-07 OVMax= 2.12D-05

 Initial convergence to 1.0D-05 achieved.  Increase integral accuracy.
 Cycle   7  Pass 1  IDiag  1:
 E= -152.658770104068     Delta-E=        0.000000817748 Rises=F Damp=F
 DIIS: error= 2.73D-06 at cycle   1 NSaved=   1.
 NSaved= 1 IEnMin= 1 EnMin= -152.658770104068     IErMin= 1 ErrMin= 2.73D-06
 ErrMax= 2.73D-06  0.00D+00 EMaxC= 1.00D-01 BMatC= 4.47D-10 BMatP= 4.47D-10
 IDIUse=1 WtCom= 1.00D+00 WtEn= 0.00D+00
 Coeff-Com:  0.100D+01
 Coeff:      0.100D+01
 Gap=     0.223 Goal=   None    Shift=    0.000
 RMSDP=1.48D-06 MaxDP=1.55D-05 DE= 8.18D-07 OVMax= 9.29D-06

 Cycle   8  Pass 1  IDiag  1:
 E= -152.658770104464     Delta-E=       -0.000000000397 Rises=F Damp=F
 DIIS: error= 1.45D-06 at cycle   2 NSaved=   2.
 NSaved= 2 IEnMin= 2 EnMin= -152.658770104464     IErMin= 2 ErrMin= 1.45D-06
 ErrMax= 1.45D-06  0.00D+00 EMaxC= 1.00D-01 BMatC= 7.91D-11 BMatP= 4.47D-10
 IDIUse=1 WtCom= 1.00D+00 WtEn= 0.00D+00
 Coeff-Com:  0.237D+00 0.763D+00
 Coeff:      0.237D+00 0.763D+00
 Gap=     0.223 Goal=   None    Shift=    0.000
 RMSDP=3.03D-07 MaxDP=2.91D-06 DE=-3.97D-10 OVMax= 4.20D-06

 Cycle   9  Pass 1  IDiag  1:
 E= -152.658770104491     Delta-E=       -0.000000000027 Rises=F Damp=F
 DIIS: error= 1.46D-06 at cycle   3 NSaved=   3.
 NSaved= 3 IEnMin= 3 EnMin= -152.658770104491     IErMin= 2 ErrMin= 1.45D-06
 ErrMax= 1.46D-06  0.00D+00 EMaxC= 1.00D-01 BMatC= 5.11D-11 BMatP= 7.91D-11
 IDIUse=1 WtCom= 1.00D+00 WtEn= 0.00D+00
 Coeff-Com:  0.438D-01 0.446D+00 0.510D+00
 Coeff:      0.438D-01 0.446D+00 0.510D+00
 Gap=     0.223 Goal=   None    Shift=    0.000
 RMSDP=1.56D-07 MaxDP=1.96D-06 DE=-2.67D-11 OVMax= 1.92D-06

 Cycle  10  Pass 1  IDiag  1:
 E= -152.658770104525     Delta-E=       -0.000000000034 Rises=F Damp=F
 DIIS: error= 3.55D-07 at cycle   4 NSaved=   4.
 NSaved= 4 IEnMin= 4 EnMin= -152.658770104525     IErMin= 4 ErrMin= 3.55D-07
 ErrMax= 3.55D-07  0.00D+00 EMaxC= 1.00D-01 BMatC= 3.61D-12 BMatP= 5.11D-11
 IDIUse=1 WtCom= 1.00D+00 WtEn= 0.00D+00
 Coeff-Com:  0.299D-02 0.164D+00 0.276D+00 0.556D+00
 Coeff:      0.299D-02 0.164D+00 0.276D+00 0.556D+00
 Gap=     0.223 Goal=   None    Shift=    0.000
 RMSDP=3.96D-08 MaxDP=4.06D-07 DE=-3.41D-11 OVMax= 5.63D-07

 Cycle  11  Pass 1  IDiag  1:
 E= -152.658770104529     Delta-E=       -0.000000000003 Rises=F Damp=F
 DIIS: error= 1.28D-08 at cycle   5 NSaved=   5.
 NSaved= 5 IEnMin= 5 EnMin= -152.658770104529     IErMin= 5 ErrMin= 1.28D-08
 ErrMax= 1.28D-08  0.00D+00 EMaxC= 1.00D-01 BMatC= 7.00D-15 BMatP= 3.61D-12
 IDIUse=1 WtCom= 1.00D+00 WtEn= 0.00D+00
 Coeff-Com:  0.708D-03 0.453D-01 0.798D-01 0.163D+00 0.712D+00
 Coeff:      0.708D-03 0.453D-01 0.798D-01 0.163D+00 0.712D+00
 Gap=     0.223 Goal=   None    Shift=    0.000
 RMSDP=2.91D-09 MaxDP=3.18D-08 DE=-3.41D-12 OVMax= 3.36D-08

 SCF Done:  E(RPBE-PBE) =  -152.658770105     A.U. after   11 cycles
            NFock= 11  Conv=0.29D-08     -V/T= 2.0084
 KE= 1.513862904830D+02 PE=-4.339369498546D+02 EE= 9.331707171582D+01
 Leave Link  502 at Thu Jan 29 10:50:06 2015, MaxMem=    33554432 cpu:         2.0
 (Enter /appl/chem/G09RevD.01/g09/l701.exe)
 Compute integral first derivatives.
 ... and contract with generalized density number  0.
 R6Disp: Adding Grimme-D2 dispersion energy 1st derivatives to the gradient.
 Leave Link  701 at Thu Jan 29 10:50:06 2015, MaxMem=    33554432 cpu:         0.3
 (Enter /appl/chem/G09RevD.01/g09/l702.exe)
 L702 exits ... SP integral derivatives will be done elsewhere.
 Leave Link  702 at Thu Jan 29 10:50:06 2015, MaxMem=    33554432 cpu:         0.0
 (Enter /appl/chem/G09RevD.01/g09/l703.exe)
 Compute integral first derivatives, UseDBF=F ICtDFT=           0.
 Integral derivatives from FoFJK, PRISM(SPDF).
 Calling FoFJK, ICntrl=      2527 FMM=F ISym2X=0 I1Cent= 0 IOpClX= 0 NMat=1 NMatS=1 NMatT=0.
 FoFJK:  IHMeth= 1 ICntrl=    2527 DoSepK=F KAlg= 0 I1Cent=   0 FoldK=F
 IRaf=         0 NMat=   1 IRICut=       1 DoRegI=T DoRafI=F ISym2E= 0.
 FoFCou: FMM=F IPFlag=           0 FMFlag=      100000 FMFlg1=         800
         NFxFlg=           0 DoJE=F BraDBF=F KetDBF=F FulRan=T
         wScrn=  0.000000 ICntrl=    2527 IOpCl=  0 I1Cent=           0 NGrid=           0
         NMat0=    1 NMatS0=      1 NMatT0=    0 NMatD0=    1 NMtDS0=    0 NMtDT0=    0
 Symmetry not used in FoFCou.
 Leave Link  703 at Thu Jan 29 10:50:06 2015, MaxMem=    33554432 cpu:         0.7
 (Enter /appl/chem/G09RevD.01/g09/l716.exe)
 Dipole        = 3.65849790D-01 4.19654230D-02 2.06279140D-02
 ***** Axes restored to original set *****
 -------------------------------------------------------------------
 Center     Atomic                   Forces (Hartrees/Bohr)
 Number     Number              X              Y              Z
 -------------------------------------------------------------------
      1        8           0.000109938    0.002951708   -0.000076385
      2        1          -0.000114372   -0.000089495    0.000066477
      3        1           0.000114303   -0.000077290    0.000055244
      4        8          -0.001214633   -0.029547717    0.009265083
      5        1           0.001120014    0.027758340   -0.010707051
      6        1          -0.000015250   -0.000995546    0.001396632
 -------------------------------------------------------------------
 Cartesian Forces:  Max     0.029547717 RMS     0.010161271
 Leave Link  716 at Thu Jan 29 10:50:06 2015, MaxMem=    33554432 cpu:         0.1
 (Enter /appl/chem/G09RevD.01/g09/l103.exe)

 GradGradGradGradGradGradGradGradGradGradGradGradGradGradGradGradGradGrad
 Berny optimization.
 FormGI is forming the generalized inverse of G from B-inverse, IUseBI=4.
 Internal  Forces:  Max     0.022515653 RMS     0.006889524
 Search for a local minimum.
 Step number   1 out of a maximum of   25 on scan point     2 out of    11
 All quantities printed in internal units (Hartrees-Bohrs-Radians)
 RMS Force = .63089D-02 SwitMx=.10000D-02 MixMth= 1
 Mixed Optimization -- RFO/linear search
 Second derivative matrix not updated -- first step.
 The second derivative matrix:
                          R1        R2        R3        R4        R5
           R1           0.51504
           R2           0.00000   0.51498
           R3           0.00000   0.00000   0.02355
           R4           0.00000   0.00000   0.00000   0.05066
           R5           0.00000   0.00000   0.00000   0.00000   0.50041
           R6           0.00000   0.00000   0.00000   0.00000   0.00000
           A1           0.00000   0.00000   0.00000   0.00000   0.00000
           A2           0.00000   0.00000   0.00000   0.00000   0.00000
           A3           0.00000   0.00000   0.00000   0.00000   0.00000
           A4           0.00000   0.00000   0.00000   0.00000   0.00000
           A5           0.00000   0.00000   0.00000   0.00000   0.00000
           D1           0.00000   0.00000   0.00000   0.00000   0.00000
           D2           0.00000   0.00000   0.00000   0.00000   0.00000
           D3           0.00000   0.00000   0.00000   0.00000   0.00000
           D4           0.00000   0.00000   0.00000   0.00000   0.00000
                          R6        A1        A2        A3        A4
           R6           0.52204
           A1           0.00000   0.16000
           A2           0.00000   0.00000   0.16000
           A3           0.00000   0.00000   0.00000   0.16000
           A4           0.00000   0.00000   0.00000   0.00000   0.16000
           A5           0.00000   0.00000   0.00000   0.00000   0.00000
           D1           0.00000   0.00000   0.00000   0.00000   0.00000
           D2           0.00000   0.00000   0.00000   0.00000   0.00000
           D3           0.00000   0.00000   0.00000   0.00000   0.00000
           D4           0.00000   0.00000   0.00000   0.00000   0.00000
                          A5        D1        D2        D3        D4
           A5           0.25000
           D1           0.00000   0.01301
           D2           0.00000   0.00000   0.00230
           D3           0.00000   0.00000   0.00000   0.00230
           D4           0.00000   0.00000   0.00000   0.00000   0.01200
 ITU=  0
     Eigenvalues ---    0.00230   0.01200   0.08166   0.10848   0.16000
     Eigenvalues ---    0.16000   0.17339   0.36413   0.51498   0.51504
     Eigenvalues ---    0.522041000.000001000.000001000.000001000.00000
 RFO step:  Lambda=-1.68212082D-03 EMin= 2.30000000D-03
 Linear search not attempted -- first point.
 Iteration  1 RMS(Cart)=  0.01744883 RMS(Int)=  0.00011303
 Iteration  2 RMS(Cart)=  0.00012793 RMS(Int)=  0.00001373
 Iteration  3 RMS(Cart)=  0.00000001 RMS(Int)=  0.00001373
 Iteration  1 RMS(Cart)=  0.00000584 RMS(Int)=  0.00000443
 Iteration  2 RMS(Cart)=  0.00000180 RMS(Int)=  0.00000489
 Iteration  3 RMS(Cart)=  0.00000056 RMS(Int)=  0.00000518
 ITry= 1 IFail=0 DXMaxC= 4.99D-02 DCOld= 1.00D+10 DXMaxT= 3.00D-01 DXLimC= 3.00D+00 Rises=F
 Variable       Old X    -DE/DX   Delta X   Delta X   Delta X     New X
                                 (Linear)    (Quad)   (Total)
    R1        1.85071   0.00004   0.00000   0.00007   0.00007   1.85078
    R2        1.85078   0.00005   0.00000   0.00009   0.00009   1.85088
    R3        5.46556  -0.01036   0.00000   0.00000   0.00000   5.46556
    R4        3.68083   0.00743   0.00000   0.04585   0.04589   3.72672
    R5        1.94370  -0.02252   0.00000  -0.05446  -0.05442   1.88928
    R6        1.84410   0.00054   0.00000   0.00102   0.00102   1.84512
    A1        1.79016   0.00016   0.00000   0.00142   0.00142   1.79158
    A2        1.51826   0.00007   0.00000   0.00082   0.00082   1.51908
    A3        1.51139   0.00010   0.00000   0.00069   0.00069   1.51208
    A4        1.80989  -0.00301   0.00000  -0.01860  -0.01860   1.79129
    A5        2.63994   0.00575   0.00000   0.01009   0.01012   2.65006
    D1        1.50359   0.00008   0.00000   0.00089   0.00089   1.50448
    D2       -0.91018  -0.00008   0.00000  -0.00278  -0.00278  -0.91296
    D3        0.88389   0.00007   0.00000  -0.00146  -0.00146   0.88243
    D4       -3.11020   0.00001   0.00000   0.00067   0.00067  -3.10953
         Item               Value     Threshold  Converged?
 Maximum Force            0.018183     0.000450     NO 
 RMS     Force            0.006309     0.000300     NO 
 Maximum Displacement     0.049852     0.001800     NO 
 RMS     Displacement     0.017488     0.001200     NO 
 Predicted change in Energy=-8.462009D-04
 Lowest energy point so far.  Saving SCF results.
 GradGradGradGradGradGradGradGradGradGradGradGradGradGradGradGradGradGrad

 Leave Link  103 at Thu Jan 29 10:50:06 2015, MaxMem=    33554432 cpu:         0.0
 (Enter /appl/chem/G09RevD.01/g09/l202.exe)
                          Input orientation:                          
 ---------------------------------------------------------------------
 Center     Atomic      Atomic             Coordinates (Angstroms)
 Number     Number       Type             X           Y           Z
 ---------------------------------------------------------------------
      1          8           0        0.174337    0.498654    2.627177
      2          1           0       -0.589455    0.634879    2.029458
      3          1           0        0.939067    0.587850    2.021753
      4          8           0        0.282010    3.382370    2.433017
      5          1           0        0.244488    2.460283    2.817562
      6          1           0        0.325552    3.944564    3.230133
 ---------------------------------------------------------------------
                    Distance matrix (angstroms):
                    1          2          3          4          5
     1  O    0.000000
     2  H    0.979389   0.000000
     3  H    0.979441   1.529265   0.000000
     4  O    2.892250   2.910501   2.900035   0.000000
     5  H    1.972095   2.156077   2.149828   0.999764   0.000000
     6  H    3.501531   3.637701   3.619960   0.976398   1.542684
                    6
     6  H    0.000000
 Stoichiometry    H4O2
 Framework group  C1[X(H4O2)]
 Deg. of freedom    12
 Full point group                 C1      NOp   1
 RotChk:  IX=3 Diff= 6.41D-02
 Largest Abelian subgroup         C1      NOp   1
 Largest concise Abelian subgroup C1      NOp   1
                         Standard orientation:                         
 ---------------------------------------------------------------------
 Center     Atomic      Atomic             Coordinates (Angstroms)
 Number     Number       Type             X           Y           Z
 ---------------------------------------------------------------------
      1          8           0        1.434353   -0.119301   -0.024066
      2          1           0        1.337720    0.628552   -0.649031
      3          1           0        1.325460    0.314080    0.847501
      4          8           0       -1.447797    0.117673    0.022470
      5          1           0       -0.531378   -0.272632   -0.063366
      6          1           0       -2.024254   -0.656977   -0.122332
 ---------------------------------------------------------------------
 Rotational constants (GHZ):    199.1878817      6.6756590      6.6596794
 Leave Link  202 at Thu Jan 29 10:50:06 2015, MaxMem=    33554432 cpu:         0.0
 (Enter /appl/chem/G09RevD.01/g09/l301.exe)
 Standard basis: 6-31G(d) (6D, 7F)
 Ernie: Thresh=  0.10000D-02 Tol=  0.10000D-05 Strict=F.
 There are    38 symmetry adapted cartesian basis functions of A   symmetry.
 There are    38 symmetry adapted basis functions of A   symmetry.
    38 basis functions,    72 primitive gaussians,    38 cartesian basis functions
    10 alpha electrons       10 beta electrons
       nuclear repulsion energy        36.6669278476 Hartrees.
 IExCor= 1009 DFT=T Ex=PBE Corr=PBE ExCW=0 ScaHFX=  0.000000
 ScaDFX=  1.000000  1.000000  1.000000  1.000000 ScalE2=  1.000000  1.000000
 IRadAn=      0 IRanWt=     -1 IRanGd=            0 ICorTp=0 IEmpDi=121
 NAtoms=    6 NActive=    6 NUniq=    6 SFac= 1.00D+00 NAtFMM=   60 NAOKFM=F Big=F
 Integral buffers will be    131072 words long.
 Raffenetti 2 integral format.
 Two-electron integral symmetry is turned on.
 R6Disp:  Grimme-D2 Dispersion energy=       -0.0014405462 Hartrees.
 Nuclear repulsion after empirical dispersion term =       36.6654873014 Hartrees.
 Leave Link  301 at Thu Jan 29 10:50:06 2015, MaxMem=    33554432 cpu:         0.1
 (Enter /appl/chem/G09RevD.01/g09/l302.exe)
 NPDir=0 NMtPBC=     1 NCelOv=     1 NCel=       1 NClECP=     1 NCelD=      1
         NCelK=      1 NCelE2=     1 NClLst=     1 CellRange=     0.0.
 One-electron integrals computed using PRISM.
 NBasis=    38 RedAO= T EigKep=  1.70D-02  NBF=    38
 NBsUse=    38 1.00D-06 EigRej= -1.00D+00 NBFU=    38
 Precomputing XC quadrature grid using
 IXCGrd= 4 IRadAn=           0 IRanWt=          -1 IRanGd=           0 AccXCQ= 0.00D+00.
 Generated NRdTot=       0 NPtTot=           0 NUsed=           0 NTot=          32
 NSgBfM=    38    38    38    38    38 MxSgAt=     6 MxSgA2=     6.
 Leave Link  302 at Thu Jan 29 10:50:07 2015, MaxMem=    33554432 cpu:         0.3
 (Enter /appl/chem/G09RevD.01/g09/l303.exe)
 DipDrv:  MaxL=1.
 Leave Link  303 at Thu Jan 29 10:50:07 2015, MaxMem=    33554432 cpu:         0.1
 (Enter /appl/chem/G09RevD.01/g09/l401.exe)
 Initial guess from the checkpoint file:  "dimer_scan.chk"
 B after Tr=     0.000000    0.000000    0.000000
         Rot=    0.999744    0.022614   -0.000017    0.000065 Ang=   2.59 deg.
 Guess basis will be translated and rotated to current coordinates.
 JPrj=2 DoOrth=T DoCkMO=T.
 Generating alternative initial guess.
 ExpMin= 1.61D-01 ExpMax= 5.48D+03 ExpMxC= 8.25D+02 IAcc=1 IRadAn=         1 AccDes= 0.00D+00
 Harris functional with IExCor= 1009 and IRadAn=       1 diagonalized for initial guess.
 HarFok:  IExCor= 1009 AccDes= 0.00D+00 IRadAn=         1 IDoV= 1 UseB2=F ITyADJ=14
 ICtDFT=  3500011 ScaDFX=  1.000000  1.000000  1.000000  1.000000
 FoFCou: FMM=F IPFlag=           0 FMFlag=      100000 FMFlg1=           0
         NFxFlg=           0 DoJE=T BraDBF=F KetDBF=T FulRan=T
         wScrn=  0.000000 ICntrl=     500 IOpCl=  0 I1Cent=   200000004 NGrid=           0
         NMat0=    1 NMatS0=      1 NMatT0=    0 NMatD0=    1 NMtDS0=    0 NMtDT0=    0
 Petite list used in FoFCou.
 Harris En= -152.747344850989    
 Leave Link  401 at Thu Jan 29 10:50:07 2015, MaxMem=    33554432 cpu:         0.5
 (Enter /appl/chem/G09RevD.01/g09/l502.exe)
 Closed shell SCF:
 Using DIIS extrapolation, IDIIS=  1040.
 Integral symmetry usage will be decided dynamically.
 Keep J ints in memory in canonical form, NReq=1158825.
 IVT=       23404 IEndB=       23404 NGot=    33554432 MDV=    33256118
 LenX=    33256118 LenY=    33254233
 Requested convergence on RMS density matrix=1.00D-08 within 128 cycles.
 Requested convergence on MAX density matrix=1.00D-06.
 Requested convergence on             energy=1.00D-06.
 No special actions if energy rises.
 FoFCou: FMM=F IPFlag=           0 FMFlag=           0 FMFlg1=           0
         NFxFlg=           0 DoJE=F BraDBF=F KetDBF=F FulRan=T
         wScrn=  0.000000 ICntrl=     600 IOpCl=  0 I1Cent=           0 NGrid=           0
         NMat0=    1 NMatS0=    741 NMatT0=    0 NMatD0=    1 NMtDS0=    0 NMtDT0=    0
 Symmetry not used in FoFCou.
 Integral accuracy reduced to 1.0D-05 until final iterations.

 Cycle   1  Pass 0  IDiag  1:
 E= -152.659631071378    
 DIIS: error= 2.18D-03 at cycle   1 NSaved=   1.
 NSaved= 1 IEnMin= 1 EnMin= -152.659631071378     IErMin= 1 ErrMin= 2.18D-03
 ErrMax= 2.18D-03  0.00D+00 EMaxC= 1.00D-01 BMatC= 2.18D-04 BMatP= 2.18D-04
 IDIUse=3 WtCom= 9.78D-01 WtEn= 2.18D-02
 Coeff-Com:  0.100D+01
 Coeff-En:   0.100D+01
 Coeff:      0.100D+01
 Gap=     0.962 Goal=   None    Shift=    0.000
 GapD=    0.962 DampG=2.000 DampE=1.000 DampFc=2.0000 IDamp=-1.
 RMSDP=5.79D-04 MaxDP=5.21D-03              OVMax= 7.15D-03

 Cycle   2  Pass 0  IDiag  1:
 E= -152.659796626545     Delta-E=       -0.000165555167 Rises=F Damp=F
 DIIS: error= 2.56D-03 at cycle   2 NSaved=   2.
 NSaved= 2 IEnMin= 2 EnMin= -152.659796626545     IErMin= 1 ErrMin= 2.18D-03
 ErrMax= 2.56D-03  0.00D+00 EMaxC= 1.00D-01 BMatC= 1.25D-04 BMatP= 2.18D-04
 IDIUse=3 WtCom= 9.74D-01 WtEn= 2.56D-02
 Coeff-Com:  0.409D+00 0.591D+00
 Coeff-En:   0.000D+00 0.100D+01
 Coeff:      0.398D+00 0.602D+00
 Gap=     0.224 Goal=   None    Shift=    0.000
 RMSDP=3.42D-04 MaxDP=3.89D-03 DE=-1.66D-04 OVMax= 4.06D-03

 Cycle   3  Pass 0  IDiag  1:
 E= -152.659844443352     Delta-E=       -0.000047816807 Rises=F Damp=F
 DIIS: error= 1.72D-03 at cycle   3 NSaved=   3.
 NSaved= 3 IEnMin= 3 EnMin= -152.659844443352     IErMin= 3 ErrMin= 1.72D-03
 ErrMax= 1.72D-03  0.00D+00 EMaxC= 1.00D-01 BMatC= 5.94D-05 BMatP= 1.25D-04
 IDIUse=3 WtCom= 9.83D-01 WtEn= 1.72D-02
 Coeff-Com:  0.622D-01 0.402D+00 0.536D+00
 Coeff-En:   0.000D+00 0.351D+00 0.649D+00
 Coeff:      0.611D-01 0.401D+00 0.538D+00
 Gap=     0.226 Goal=   None    Shift=    0.000
 RMSDP=1.51D-04 MaxDP=1.78D-03 DE=-4.78D-05 OVMax= 1.83D-03

 Cycle   4  Pass 0  IDiag  1:
 E= -152.659886661482     Delta-E=       -0.000042218130 Rises=F Damp=F
 DIIS: error= 1.12D-04 at cycle   4 NSaved=   4.
 NSaved= 4 IEnMin= 4 EnMin= -152.659886661482     IErMin= 4 ErrMin= 1.12D-04
 ErrMax= 1.12D-04  0.00D+00 EMaxC= 1.00D-01 BMatC= 6.94D-07 BMatP= 5.94D-05
 IDIUse=3 WtCom= 9.99D-01 WtEn= 1.12D-03
 Coeff-Com:  0.849D-02 0.137D+00 0.217D+00 0.638D+00
 Coeff-En:   0.000D+00 0.000D+00 0.000D+00 0.100D+01
 Coeff:      0.848D-02 0.137D+00 0.217D+00 0.638D+00
 Gap=     0.226 Goal=   None    Shift=    0.000
 RMSDP=2.24D-05 MaxDP=2.43D-04 DE=-4.22D-05 OVMax= 2.74D-04

 Cycle   5  Pass 0  IDiag  1:
 E= -152.659887031318     Delta-E=       -0.000000369836 Rises=F Damp=F
 DIIS: error= 8.08D-05 at cycle   5 NSaved=   5.
 NSaved= 5 IEnMin= 5 EnMin= -152.659887031318     IErMin= 5 ErrMin= 8.08D-05
 ErrMax= 8.08D-05  0.00D+00 EMaxC= 1.00D-01 BMatC= 2.16D-07 BMatP= 6.94D-07
 IDIUse=1 WtCom= 1.00D+00 WtEn= 0.00D+00
 Coeff-Com:  0.256D-03 0.565D-01 0.977D-01 0.413D+00 0.432D+00
 Coeff:      0.256D-03 0.565D-01 0.977D-01 0.413D+00 0.432D+00
 Gap=     0.226 Goal=   None    Shift=    0.000
 RMSDP=9.19D-06 MaxDP=9.82D-05 DE=-3.70D-07 OVMax= 1.10D-04

 Initial convergence to 1.0D-05 achieved.  Increase integral accuracy.
 Cycle   6  Pass 1  IDiag  1:
 E= -152.659883341012     Delta-E=        0.000003690307 Rises=F Damp=F
 DIIS: error= 7.36D-06 at cycle   1 NSaved=   1.
 NSaved= 1 IEnMin= 1 EnMin= -152.659883341012     IErMin= 1 ErrMin= 7.36D-06
 ErrMax= 7.36D-06  0.00D+00 EMaxC= 1.00D-01 BMatC= 1.67D-09 BMatP= 1.67D-09
 IDIUse=1 WtCom= 1.00D+00 WtEn= 0.00D+00
 Coeff-Com:  0.100D+01
 Coeff:      0.100D+01
 Gap=     0.226 Goal=   None    Shift=    0.000
 RMSDP=9.19D-06 MaxDP=9.82D-05 DE= 3.69D-06 OVMax= 2.49D-05

 Cycle   7  Pass 1  IDiag  1:
 E= -152.659883340647     Delta-E=        0.000000000364 Rises=F Damp=F
 DIIS: error= 8.08D-06 at cycle   2 NSaved=   2.
 NSaved= 2 IEnMin= 1 EnMin= -152.659883341012     IErMin= 1 ErrMin= 7.36D-06
 ErrMax= 8.08D-06  0.00D+00 EMaxC= 1.00D-01 BMatC= 2.50D-09 BMatP= 1.67D-09
 IDIUse=1 WtCom= 1.00D+00 WtEn= 0.00D+00
 Coeff-Com:  0.555D+00 0.445D+00
 Coeff:      0.555D+00 0.445D+00
 Gap=     0.226 Goal=   None    Shift=    0.000
 RMSDP=1.12D-06 MaxDP=1.08D-05 DE= 3.64D-10 OVMax= 1.19D-05

 Cycle   8  Pass 1  IDiag  1:
 E= -152.659883342392     Delta-E=       -0.000000001745 Rises=F Damp=F
 DIIS: error= 2.04D-06 at cycle   3 NSaved=   3.
 NSaved= 3 IEnMin= 3 EnMin= -152.659883342392     IErMin= 3 ErrMin= 2.04D-06
 ErrMax= 2.04D-06  0.00D+00 EMaxC= 1.00D-01 BMatC= 1.51D-10 BMatP= 1.67D-09
 IDIUse=1 WtCom= 1.00D+00 WtEn= 0.00D+00
 Coeff-Com:  0.173D+00 0.234D+00 0.593D+00
 Coeff:      0.173D+00 0.234D+00 0.593D+00
 Gap=     0.226 Goal=   None    Shift=    0.000
 RMSDP=2.77D-07 MaxDP=2.66D-06 DE=-1.75D-09 OVMax= 2.96D-06

 Cycle   9  Pass 1  IDiag  1:
 E= -152.659883342503     Delta-E=       -0.000000000110 Rises=F Damp=F
 DIIS: error= 3.22D-07 at cycle   4 NSaved=   4.
 NSaved= 4 IEnMin= 4 EnMin= -152.659883342503     IErMin= 4 ErrMin= 3.22D-07
 ErrMax= 3.22D-07  0.00D+00 EMaxC= 1.00D-01 BMatC= 4.76D-12 BMatP= 1.51D-10
 IDIUse=1 WtCom= 1.00D+00 WtEn= 0.00D+00
 Coeff-Com:  0.190D-01 0.504D-01 0.210D+00 0.721D+00
 Coeff:      0.190D-01 0.504D-01 0.210D+00 0.721D+00
 Gap=     0.226 Goal=   None    Shift=    0.000
 RMSDP=6.46D-08 MaxDP=5.66D-07 DE=-1.10D-10 OVMax= 7.52D-07

 Cycle  10  Pass 1  IDiag  1:
 E= -152.659883342505     Delta-E=       -0.000000000003 Rises=F Damp=F
 DIIS: error= 3.08D-07 at cycle   5 NSaved=   5.
 NSaved= 5 IEnMin= 5 EnMin= -152.659883342505     IErMin= 5 ErrMin= 3.08D-07
 ErrMax= 3.08D-07  0.00D+00 EMaxC= 1.00D-01 BMatC= 2.24D-12 BMatP= 4.76D-12
 IDIUse=1 WtCom= 1.00D+00 WtEn= 0.00D+00
 Coeff-Com:  0.254D-02 0.203D-01 0.106D+00 0.479D+00 0.393D+00
 Coeff:      0.254D-02 0.203D-01 0.106D+00 0.479D+00 0.393D+00
 Gap=     0.226 Goal=   None    Shift=    0.000
 RMSDP=2.88D-08 MaxDP=2.96D-07 DE=-2.84D-12 OVMax= 3.13D-07

 Cycle  11  Pass 1  IDiag  1:
 E= -152.659883342506     Delta-E=       -0.000000000001 Rises=F Damp=F
 DIIS: error= 1.17D-08 at cycle   6 NSaved=   6.
 NSaved= 6 IEnMin= 6 EnMin= -152.659883342506     IErMin= 6 ErrMin= 1.17D-08
 ErrMax= 1.17D-08  0.00D+00 EMaxC= 1.00D-01 BMatC= 2.82D-15 BMatP= 2.24D-12
 IDIUse=1 WtCom= 1.00D+00 WtEn= 0.00D+00
 Coeff-Com:  0.272D-03 0.444D-02 0.241D-01 0.110D+00 0.105D+00 0.757D+00
 Coeff:      0.272D-03 0.444D-02 0.241D-01 0.110D+00 0.105D+00 0.757D+00
 Gap=     0.226 Goal=   None    Shift=    0.000
 RMSDP=1.23D-09 MaxDP=1.97D-08 DE=-7.39D-13 OVMax= 1.60D-08

 SCF Done:  E(RPBE-PBE) =  -152.659883343     A.U. after   11 cycles
            NFock= 11  Conv=0.12D-08     -V/T= 2.0081
 KE= 1.514271941537D+02 PE=-4.341382043415D+02 EE= 9.338563954392D+01
 Leave Link  502 at Thu Jan 29 10:50:08 2015, MaxMem=    33554432 cpu:         2.1
 (Enter /appl/chem/G09RevD.01/g09/l701.exe)
 Compute integral first derivatives.
 ... and contract with generalized density number  0.
 R6Disp: Adding Grimme-D2 dispersion energy 1st derivatives to the gradient.
 Leave Link  701 at Thu Jan 29 10:50:08 2015, MaxMem=    33554432 cpu:         0.3
 (Enter /appl/chem/G09RevD.01/g09/l702.exe)
 L702 exits ... SP integral derivatives will be done elsewhere.
 Leave Link  702 at Thu Jan 29 10:50:08 2015, MaxMem=    33554432 cpu:         0.1
 (Enter /appl/chem/G09RevD.01/g09/l703.exe)
 Compute integral first derivatives, UseDBF=F ICtDFT=           0.
 Integral derivatives from FoFJK, PRISM(SPDF).
 Calling FoFJK, ICntrl=      2527 FMM=F ISym2X=0 I1Cent= 0 IOpClX= 0 NMat=1 NMatS=1 NMatT=0.
 FoFJK:  IHMeth= 1 ICntrl=    2527 DoSepK=F KAlg= 0 I1Cent=   0 FoldK=F
 IRaf=         0 NMat=   1 IRICut=       1 DoRegI=T DoRafI=F ISym2E= 0.
 FoFCou: FMM=F IPFlag=           0 FMFlag=      100000 FMFlg1=         800
         NFxFlg=           0 DoJE=F BraDBF=F KetDBF=F FulRan=T
         wScrn=  0.000000 ICntrl=    2527 IOpCl=  0 I1Cent=           0 NGrid=           0
         NMat0=    1 NMatS0=      1 NMatT0=    0 NMatD0=    1 NMtDS0=    0 NMtDT0=    0
 Symmetry not used in FoFCou.
 Leave Link  703 at Thu Jan 29 10:50:08 2015, MaxMem=    33554432 cpu:         0.7
 (Enter /appl/chem/G09RevD.01/g09/l716.exe)
 Dipole        = 3.57564143D-01 3.90645181D-02 1.67321353D-02
 ***** Axes restored to original set *****
 -------------------------------------------------------------------
 Center     Atomic                   Forces (Hartrees/Bohr)
 Number     Number              X              Y              Z
 -------------------------------------------------------------------
      1        8           0.000111960    0.002520404   -0.000119905
      2        1           0.000160608    0.000020848    0.000117338
      3        1          -0.000175092    0.000064704    0.000126175
      4        8          -0.000440217   -0.011591696    0.005155573
      5        1           0.000308655    0.008362074   -0.005025395
      6        1           0.000034087    0.000623665   -0.000253786
 -------------------------------------------------------------------
 Cartesian Forces:  Max     0.011591696 RMS     0.003824918
 Leave Link  716 at Thu Jan 29 10:50:09 2015, MaxMem=    33554432 cpu:         0.1
 (Enter /appl/chem/G09RevD.01/g09/l103.exe)

 GradGradGradGradGradGradGradGradGradGradGradGradGradGradGradGradGradGrad
 Berny optimization.
 Using GEDIIS/GDIIS optimizer.
 FormGI is forming the generalized inverse of G from B-inverse, IUseBI=4.
 Internal  Forces:  Max     0.007827008 RMS     0.002446221
 Search for a local minimum.
 Step number   2 out of a maximum of   25 on scan point     2 out of    11
 All quantities printed in internal units (Hartrees-Bohrs-Radians)
 RMS Force = .20947D-02 SwitMx=.10000D-02 MixMth= 1
 Mixed Optimization -- RFO/linear search
 Update second derivatives using D2CorX and points    1    2
 DE= -1.11D-03 DEPred=-8.46D-04 R= 1.32D+00
 TightC=F SS=  1.41D+00  RLast= 7.44D-02 DXNew= 5.0454D-01 2.2313D-01
 Trust test= 1.32D+00 RLast= 7.44D-02 DXMaxT set to 3.00D-01
 The second derivative matrix:
                          R1        R2        R3        R4        R5
           R1           0.51509
           R2           0.00005   0.51503
           R3          -0.00115  -0.00130   0.05347
           R4           0.00105   0.00118  -0.02860   0.07476
           R5          -0.00226  -0.00244   0.07407  -0.03290   0.23988
           R6           0.00006   0.00007  -0.00192   0.00110   0.00394
           A1           0.00003   0.00003  -0.00094   0.00058   0.00139
           A2           0.00002   0.00002  -0.00048   0.00028   0.00093
           A3           0.00004   0.00005  -0.00120   0.00100  -0.00118
           A4          -0.00075  -0.00084   0.02126  -0.01618   0.00414
           A5           0.00066   0.00074  -0.01865   0.01431  -0.00493
           D1           0.00003   0.00003  -0.00070   0.00066  -0.00155
           D2          -0.00002  -0.00002   0.00043  -0.00040   0.00096
           D3           0.00002   0.00002  -0.00039   0.00038  -0.00103
           D4           0.00000   0.00000   0.00003  -0.00004   0.00021
                          R6        A1        A2        A3        A4
           R6           0.52200
           A1          -0.00001   0.16000
           A2          -0.00001   0.00000   0.16000
           A3           0.00004   0.00002   0.00001   0.16004
           A4          -0.00042  -0.00026  -0.00011  -0.00066   0.16981
           A5           0.00039   0.00024   0.00010   0.00058  -0.00875
           D1           0.00004   0.00002   0.00001   0.00003  -0.00048
           D2          -0.00003  -0.00001  -0.00001  -0.00002   0.00029
           D3           0.00003   0.00001   0.00001   0.00002  -0.00029
           D4           0.00000   0.00000   0.00000   0.00000   0.00004
                          A5        D1        D2        D3        D4
           A5           0.25780
           D1           0.00042   0.01302
           D2          -0.00026  -0.00001   0.00231
           D3           0.00025   0.00001  -0.00001   0.00231
           D4          -0.00003   0.00000   0.00000   0.00000   0.01200
 ITU=  1  0
 Use linear search instead of GDIIS.
     Eigenvalues ---    0.00230   0.01200   0.08165   0.10848   0.15602
     Eigenvalues ---    0.16002   0.17534   0.26209   0.51501   0.51517
     Eigenvalues ---    0.522021000.000001000.000001000.000001000.00000
 RFO step:  Lambda=-6.40917297D-05 EMin= 2.29998804D-03
 Quartic linear search produced a step of  0.37510.
 Iteration  1 RMS(Cart)=  0.00632043 RMS(Int)=  0.00007801
 Iteration  2 RMS(Cart)=  0.00003715 RMS(Int)=  0.00001485
 Iteration  3 RMS(Cart)=  0.00000000 RMS(Int)=  0.00001485
 Iteration  1 RMS(Cart)=  0.00000616 RMS(Int)=  0.00000471
 Iteration  2 RMS(Cart)=  0.00000191 RMS(Int)=  0.00000519
 Iteration  3 RMS(Cart)=  0.00000059 RMS(Int)=  0.00000550
 ITry= 1 IFail=0 DXMaxC= 1.48D-02 DCOld= 1.00D+10 DXMaxT= 3.00D-01 DXLimC= 3.00D+00 Rises=F
 Variable       Old X    -DE/DX   Delta X   Delta X   Delta X     New X
                                 (Linear)    (Quad)   (Total)
    R1        1.85078  -0.00019   0.00003  -0.00054  -0.00051   1.85026
    R2        1.85088  -0.00021   0.00003  -0.00059  -0.00056   1.85032
    R3        5.46556  -0.00443   0.00000   0.00000   0.00000   5.46556
    R4        3.72672   0.00176   0.01721   0.00077   0.01803   3.74475
    R5        1.88928  -0.00783  -0.02041  -0.00380  -0.02417   1.86511
    R6        1.84512   0.00015   0.00038   0.00004   0.00042   1.84554
    A1        1.79158  -0.00002   0.00053  -0.00086  -0.00033   1.79125
    A2        1.51908  -0.00003   0.00031  -0.00107  -0.00076   1.51832
    A3        1.51208  -0.00014   0.00026  -0.00157  -0.00131   1.51077
    A4        1.79129   0.00121  -0.00698   0.01807   0.01110   1.80239
    A5        2.65006   0.00206   0.00380   0.00467   0.00850   2.65856
    D1        1.50448  -0.00006   0.00033  -0.00139  -0.00106   1.50342
    D2       -0.91296   0.00000  -0.00104   0.00899   0.00794  -0.90501
    D3        0.88243  -0.00001  -0.00055   0.00830   0.00776   0.89019
    D4       -3.10953   0.00002   0.00025   0.00091   0.00116  -3.10838
         Item               Value     Threshold  Converged?
 Maximum Force            0.005956     0.000450     NO 
 RMS     Force            0.002095     0.000300     NO 
 Maximum Displacement     0.014759     0.001800     NO 
 RMS     Displacement     0.006325     0.001200     NO 
 Predicted change in Energy=-1.375840D-04
 Lowest energy point so far.  Saving SCF results.
 GradGradGradGradGradGradGradGradGradGradGradGradGradGradGradGradGradGrad

 Leave Link  103 at Thu Jan 29 10:50:09 2015, MaxMem=    33554432 cpu:         0.1
 (Enter /appl/chem/G09RevD.01/g09/l202.exe)
                          Input orientation:                          
 ---------------------------------------------------------------------
 Center     Atomic      Atomic             Coordinates (Angstroms)
 Number     Number       Type             X           Y           Z
 ---------------------------------------------------------------------
      1          8           0        0.173894    0.496400    2.627057
      2          1           0       -0.588798    0.631639    2.028155
      3          1           0        0.939095    0.584774    2.022587
      4          8           0        0.278795    3.380529    2.437570
      5          1           0        0.244623    2.468093    2.812278
      6          1           0        0.328390    3.947165    3.231453
 ---------------------------------------------------------------------
                    Distance matrix (angstroms):
                    1          2          3          4          5
     1  O    0.000000
     2  H    0.979118   0.000000
     3  H    0.979146   1.528622   0.000000
     4  O    2.892250   2.911483   2.902491   0.000000
     5  H    1.981637   2.163794   2.157034   0.986972   0.000000
     6  H    3.506700   3.644430   3.624913   0.976620   1.539603
                    6
     6  H    0.000000
 Stoichiometry    H4O2
 Framework group  C1[X(H4O2)]
 Deg. of freedom    12
 Full point group                 C1      NOp   1
 RotChk:  IX=0 Diff= 1.80D-01
 Largest Abelian subgroup         C1      NOp   1
 Largest concise Abelian subgroup C1      NOp   1
                         Standard orientation:                         
 ---------------------------------------------------------------------
 Center     Atomic      Atomic             Coordinates (Angstroms)
 Number     Number       Type             X           Y           Z
 ---------------------------------------------------------------------
      1          8           0        1.434986   -0.115730   -0.039315
      2          1           0        1.339694    0.706249   -0.562708
      3          1           0        1.328331    0.202545    0.880496
      4          8           0       -1.447187    0.113409    0.036100
      5          1           0       -0.540973   -0.255495   -0.093513
      6          1           0       -2.029438   -0.634727   -0.198555
[...]
 Leave Link  502 at Thu Jan 29 10:54:33 2015, MaxMem=    33554432 cpu:         1.7
 (Enter /appl/chem/G09RevD.01/g09/l701.exe)
 Compute integral first derivatives.
 ... and contract with generalized density number  0.
 R6Disp: Adding Grimme-D2 dispersion energy 1st derivatives to the gradient.
 Leave Link  701 at Thu Jan 29 10:54:33 2015, MaxMem=    33554432 cpu:         0.3
 (Enter /appl/chem/G09RevD.01/g09/l702.exe)
 L702 exits ... SP integral derivatives will be done elsewhere.
 Leave Link  702 at Thu Jan 29 10:54:33 2015, MaxMem=    33554432 cpu:         0.0
 (Enter /appl/chem/G09RevD.01/g09/l703.exe)
 Compute integral first derivatives, UseDBF=F ICtDFT=           0.
 Integral derivatives from FoFJK, PRISM(SPDF).
 Calling FoFJK, ICntrl=      2527 FMM=F ISym2X=0 I1Cent= 0 IOpClX= 0 NMat=1 NMatS=1 NMatT=0.
 FoFJK:  IHMeth= 1 ICntrl=    2527 DoSepK=F KAlg= 0 I1Cent=   0 FoldK=F
 IRaf=         0 NMat=   1 IRICut=       1 DoRegI=T DoRafI=F ISym2E= 0.
 FoFCou: FMM=F IPFlag=           0 FMFlag=      100000 FMFlg1=         800
         NFxFlg=           0 DoJE=F BraDBF=F KetDBF=F FulRan=T
         wScrn=  0.000000 ICntrl=    2527 IOpCl=  0 I1Cent=           0 NGrid=           0
         NMat0=    1 NMatS0=      1 NMatT0=    0 NMatD0=    1 NMtDS0=    0 NMtDT0=    0
 Symmetry not used in FoFCou.
 Leave Link  703 at Thu Jan 29 10:54:33 2015, MaxMem=    33554432 cpu:         0.6
 (Enter /appl/chem/G09RevD.01/g09/l716.exe)
 Dipole        = 7.71454326D-01 1.11053192D-01-2.34268238D-03
 ***** Axes restored to original set *****
 -------------------------------------------------------------------
 Center     Atomic                   Forces (Hartrees/Bohr)
 Number     Number              X              Y              Z
 -------------------------------------------------------------------
      1        8           0.000154578    0.004429109   -0.000029134
      2        1           0.000000995    0.000000902   -0.000001520
      3        1          -0.000005009   -0.000001261    0.000002070
      4        8          -0.000112678   -0.004464577    0.000030399
      5        1          -0.000037221    0.000038982    0.000001927
      6        1          -0.000000666   -0.000003155   -0.000003741
 -------------------------------------------------------------------
 Cartesian Forces:  Max     0.004464577 RMS     0.001483067
 Leave Link  716 at Thu Jan 29 10:54:34 2015, MaxMem=    33554432 cpu:         0.0
 (Enter /appl/chem/G09RevD.01/g09/l103.exe)

 GradGradGradGradGradGradGradGradGradGradGradGradGradGradGradGradGradGrad
 Berny optimization.
 Using GEDIIS/GDIIS optimizer.
 FormGI is forming the generalized inverse of G from B-inverse, IUseBI=4.
 Internal  Forces:  Max     0.002969088 RMS     0.000938585
 Search for a local minimum.
 Step number   6 out of a maximum of   25 on scan point    11 out of    11
 All quantities printed in internal units (Hartrees-Bohrs-Radians)
 RMS Force = .77259D-05 SwitMx=.10000D-02 MixMth= 2
 Mixed Optimization -- En-DIIS/RFO-DIIS
 Swapping is turned off.
 Update second derivatives using D2CorX and points    1    2    3    4    5
                                                      6
 DE= -8.23D-08 DEPred=-6.71D-08 R= 1.23D+00
 Trust test= 1.23D+00 RLast= 1.77D-02 DXMaxT set to 9.02D-01
 The second derivative matrix:
                          R1        R2        R3        R4        R5
           R1           0.47752
           R2          -0.00453   0.50601
           R3           0.00284  -0.00234   0.08578
           R4          -0.00005   0.00035  -0.05542   0.05677
           R5           0.00231   0.00101   0.11821  -0.11195   0.23095
           R6           0.01684  -0.01284   0.00188   0.00345  -0.00469
           A1           0.01497   0.01075   0.00288   0.00227   0.00137
           A2          -0.00146   0.00226   0.00034   0.00038  -0.00004
           A3          -0.00004   0.00082  -0.00185   0.00151  -0.00320
           A4           0.00051   0.00776   0.01640  -0.01081   0.02330
           A5          -0.00062  -0.00005  -0.00340   0.00372  -0.00747
           D1           0.00133  -0.00263  -0.00094  -0.00063  -0.00059
           D2          -0.01052  -0.00808   0.00080   0.00072   0.00011
           D3           0.00908   0.00883  -0.00049  -0.00094   0.00036
           D4          -0.00133   0.00090  -0.00004   0.00010  -0.00020
                          R6        A1        A2        A3        A4
           R6           0.48172
           A1          -0.00889   0.08469
           A2          -0.00184  -0.00419   0.01391
           A3          -0.00038  -0.00417   0.00168   0.00754
           A4           0.03347  -0.00305  -0.00042  -0.00106   0.17952
           A5           0.00049  -0.00119  -0.00043  -0.00092   0.00161
           D1           0.00194  -0.00047  -0.01002  -0.00227   0.00002
           D2           0.00553  -0.03739   0.00134   0.00139  -0.00228
           D3          -0.00564   0.03776  -0.00105  -0.00189   0.00224
           D4          -0.00009   0.00020   0.00023  -0.00029  -0.00006
                          A5        D1        D2        D3        D4
           A5           0.00654
           D1          -0.00118   0.01321
           D2           0.00071   0.00086   0.01907
           D3          -0.00091  -0.00063  -0.01836   0.01934
           D4          -0.00015   0.00021   0.00072   0.00087   0.00155
 ITU=  0  0  1  1  1  0
     Eigenvalues ---    0.00002   0.00221   0.00283   0.00608   0.00775
     Eigenvalues ---    0.11711   0.16879   0.26337   0.46514   0.49047
     Eigenvalues ---    0.515791000.000001000.000001000.000001000.00000
 Eigenvalue     1 is   1.62D-05 Eigenvector:
                          D4        D3        D2        A3        A2
   1                    0.58908  -0.57168  -0.57084  -0.01609   0.00481
                          A5        D1        R5        A1        R4
   1                   -0.00463   0.00109   0.00101   0.00084  -0.00063
 En-DIIS/RFO-DIIS IScMMF=        0 using points:     6    5    4    3
 RFO step:  Lambda=-4.19111995D-07.
 NNeg= 0 NP= 4 Switch=  2.50D-03 Rises=F DC=  1.41D-05 SmlDif=  1.00D-05
 RMS Error=  0.5761162407D-04 NUsed= 4 EDIIS=F
 DidBck=T Rises=F RFO-DIIS coefs:    0.77626    0.24847   -0.02546    0.00073
 Iteration  1 RMS(Cart)=  0.00042246 RMS(Int)=  0.00000394
 Iteration  2 RMS(Cart)=  0.00000694 RMS(Int)=  0.00000011
 Iteration  3 RMS(Cart)=  0.00000000 RMS(Int)=  0.00000011
 Iteration  1 RMS(Cart)=  0.00000006 RMS(Int)=  0.00000005
 ITry= 1 IFail=0 DXMaxC= 9.67D-04 DCOld= 1.00D+10 DXMaxT= 9.02D-01 DXLimC= 3.00D+00 Rises=F
 Variable       Old X    -DE/DX   Delta X   Delta X   Delta X     New X
                                 (Linear)    (Quad)   (Total)
    R1        1.84688   0.00000   0.00000   0.00000   0.00000   1.84688
    R2        1.84691   0.00000   0.00000  -0.00001  -0.00001   1.84689
    R3        7.16631  -0.00297   0.00000   0.00000   0.00000   7.16632
    R4        5.31307  -0.00146  -0.00005   0.00003  -0.00001   5.31306
    R5        1.85568  -0.00150  -0.00003  -0.00003  -0.00006   1.85562
    R6        1.84572   0.00000   0.00000  -0.00001  -0.00001   1.84571
    A1        1.79676   0.00000  -0.00002   0.00002   0.00000   1.79676
    A2        1.68856   0.00000   0.00016  -0.00013   0.00002   1.68858
    A3        1.69067   0.00000   0.00026  -0.00003   0.00023   1.69090
    A4        1.78630   0.00000  -0.00002   0.00000  -0.00002   1.78628
    A5        3.08206  -0.00011   0.00099  -0.00013   0.00086   3.08292
    D1        1.72047   0.00000   0.00022  -0.00014   0.00008   1.72055
    D2       -0.80454   0.00000   0.00137  -0.00974  -0.00837  -0.81291
    D3        1.01016   0.00000   0.00141  -0.00974  -0.00833   1.00183
    D4        3.03561   0.00000  -0.00154   0.00982   0.00829   3.04390
         Item               Value     Threshold  Converged?
 Maximum Force            0.000019     0.000450     YES
 RMS     Force            0.000008     0.000300     YES
 Maximum Displacement     0.000967     0.001800     YES
 RMS     Displacement     0.000429     0.001200     YES
 Predicted change in Energy=-2.351559D-08
 Optimization completed.
    -- Stationary point found.
                           ----------------------------
                           !   Optimized Parameters   !
                           ! (Angstroms and Degrees)  !
 --------------------------                            --------------------------
 ! Name  Definition              Value          Derivative Info.                !
 --------------------------------------------------------------------------------
 ! R1    R(1,2)                  0.9773         -DE/DX =    0.0                 !
 ! R2    R(1,3)                  0.9773         -DE/DX =    0.0                 !
 ! R3    R(1,4)                  3.7923         -DE/DX =   -0.003               !
 ! R4    R(1,5)                  2.8116         -DE/DX =   -0.0015              !
 ! R5    R(4,5)                  0.982          -DE/DX =   -0.0015              !
 ! R6    R(4,6)                  0.9767         -DE/DX =    0.0                 !
 ! A1    A(2,1,3)              102.9469         -DE/DX =    0.0                 !
 ! A2    A(2,1,5)               96.7474         -DE/DX =    0.0                 !
 ! A3    A(3,1,5)               96.8682         -DE/DX =    0.0                 !
 ! A4    A(5,4,6)              102.3473         -DE/DX =    0.0                 !
 ! A5    A(1,5,4)              176.5892         -DE/DX =   -0.0001              !
 ! D1    D(2,1,3,5)             98.5758         -DE/DX =    0.0                 !
 ! D2    D(2,1,5,4)            -46.0968         -DE/DX =    0.0                 !
 ! D3    D(3,1,5,4)             57.8778         -DE/DX =    0.0                 !
 ! D4    D(6,4,5,1)            173.9275         -DE/DX =    0.0                 !
 --------------------------------------------------------------------------------
 Lowest energy point so far.  Saving SCF results.
 GradGradGradGradGradGradGradGradGradGradGradGradGradGradGradGradGradGrad

 Summary of Optimized Potential Surface Scan
                           1         2         3         4         5
     Eigenvalues --  -152.66025-152.66005-152.65894-152.65819-152.65781
           R1           0.97938   0.97901   0.97497   0.98795   0.97842
           R2           0.97942   0.97911   0.97780   0.96648   0.97839
           R3           2.79225   2.89225   2.99225   3.09225   3.19225
           R4           1.90446   1.95320   2.12451   2.10762   2.21895
           R5           0.98704   0.98762   0.98518   0.98767   0.98613
           R6           0.97583   0.97601   0.96644   0.96355   0.97644
           A1         102.56148 102.81378 102.36674 103.15632 102.91712
           A2          86.98991  89.01497  88.04099  94.71914  89.13639
           A3          86.59840  87.97407  78.43567  95.72135  89.64051
           A4         103.70067 103.07181 103.05326 102.17442 102.40300
           A5         148.20581 157.90644 145.97708 174.55327 168.88679
           D1          86.15033  88.52809  85.37774  96.21910  89.03149
           D2         -52.16629 -54.99757 -62.84651 -57.27583 -49.04901
           D3          50.61897  47.86203  40.19946  46.48072  53.87542
           D4        -178.29709-173.00624-161.56961 179.33168 176.40109
                           6         7         8         9        10
     Eigenvalues --  -152.65688-152.65594-152.65499-152.65405-152.65315
           R1           0.97818   0.97799   0.97779   0.97762   0.97747
           R2           0.97821   0.97799   0.97780   0.97762   0.97747
           R3           3.29225   3.39225   3.49225   3.59225   3.69225
           R4           2.31570   2.41346   2.51219   2.61169   2.71155
           R5           0.98525   0.98452   0.98386   0.98319   0.98253
           R6           0.97651   0.97657   0.97662   0.97665   0.97669
           A1         102.93951 102.95242 102.95731 102.95700 102.95343
           A2          90.40770  91.49576  92.67915  93.95067  95.35582
           A3          90.06744  91.27540  92.60067  93.95133  95.33871
           A4         102.33699 102.30630 102.29886 102.30862 102.32538
           A5         170.90870 172.66071 174.05909 175.07655 175.90872
           D1          90.43382  91.82871  93.35167  94.97714  96.75878
           D2         -53.31625 -52.94751 -52.35431 -51.97151 -52.26583
           D3          49.62409  50.04686  50.75605  51.32907  51.31894
           D4        -177.31278-178.23601-179.20504-179.64995-179.47061
                          11
     Eigenvalues --  -152.65229
           R1           0.97733
           R2           0.97734
           R3           3.79225
           R4           2.81156
           R5           0.98198
           R6           0.97671
           A1         102.94693
           A2          96.74736
           A3          96.86821
           A4         102.34731
           A5         176.58921
           D1          98.57585
           D2         -46.09681
           D3          57.87783
           D4         173.92753
 Largest change from initial coordinates is atom    3       0.400 Angstoms.
 Leave Link  103 at Thu Jan 29 10:54:34 2015, MaxMem=    33554432 cpu:         0.0
 (Enter /appl/chem/G09RevD.01/g09/l202.exe)
                          Input orientation:                          
 ---------------------------------------------------------------------
 Center     Atomic      Atomic             Coordinates (Angstroms)
 Number     Number       Type             X           Y           Z
 ---------------------------------------------------------------------
      1          8           0        0.175667    0.180388    2.573283
      2          1           0       -0.614313    0.097125    2.003923
      3          1           0        0.912850    0.043913    1.946284
      4          8           0        0.295689    3.970656    2.548128
      5          1           0        0.270716    2.990234    2.597521
      6          1           0        0.335393    4.226284    3.489961
 ---------------------------------------------------------------------
                    Distance matrix (angstroms):
                    1          2          3          4          5
     1  O    0.000000
     2  H    0.977329   0.000000
     3  H    0.977340   1.529177   0.000000
     4  O    3.792251   4.016031   4.020250   0.000000
     5  H    2.811558   3.083135   3.085005   0.981982   0.000000
     6  H    4.151515   4.490012   4.495400   0.976714   1.525926
                    6
     6  H    0.000000
 Stoichiometry    H4O2
 Framework group  C1[X(H4O2)]
 Deg. of freedom    12
 Full point group                 C1      NOp   1
 RotChk:  IX=1 Diff= 1.88D-15
 Largest Abelian subgroup         C1      NOp   1
 Largest concise Abelian subgroup C1      NOp   1
                         Standard orientation:                         
 ---------------------------------------------------------------------
 Center     Atomic      Atomic             Coordinates (Angstroms)
 Number     Number       Type             X           Y           Z
 ---------------------------------------------------------------------
      1          8           0        1.844479   -0.128647    0.002149
      2          1           0        1.986922    0.448891   -0.773308
      3          1           0        1.991532    0.476211    0.755618
      4          8           0       -1.940026    0.113567   -0.001850
      5          1           0       -0.963755    0.007998    0.004408
      6          1           0       -2.250323   -0.812459    0.010888
 ---------------------------------------------------------------------
 Rotational constants (GHZ):    191.2759733      3.8905752      3.8820436
 Leave Link  202 at Thu Jan 29 10:54:34 2015, MaxMem=    33554432 cpu:         0.0
 (Enter /appl/chem/G09RevD.01/g09/l601.exe)
 Copying SCF densities to generalized density rwf, IOpCl= 0 IROHF=0.

 **********************************************************************

            Population analysis using the SCF density.

 **********************************************************************

 Orbital symmetries:
       Occupied  (A) (A) (A) (A) (A) (A) (A) (A) (A) (A)
       Virtual   (A) (A) (A) (A) (A) (A) (A) (A) (A) (A) (A) (A)
                 (A) (A) (A) (A) (A) (A) (A) (A) (A) (A) (A) (A)
                 (A) (A) (A) (A)
 The electronic state is 1-A.
 Alpha  occ. eigenvalues --  -18.77881 -18.74545  -0.92214  -0.88996  -0.47450
 Alpha  occ. eigenvalues --   -0.44240  -0.33225  -0.30247  -0.24872  -0.21546
 Alpha virt. eigenvalues --    0.01725   0.06212   0.10777   0.14206   0.70468
 Alpha virt. eigenvalues --    0.70584   0.78158   0.79888   0.83399   0.84313
 Alpha virt. eigenvalues --    0.85353   0.89898   0.99177   1.04467   1.12573
 Alpha virt. eigenvalues --    1.24687   1.64145   1.65936   1.66876   1.69103
 Alpha virt. eigenvalues --    1.69434   1.72231   2.17704   2.20815   2.46315
 Alpha virt. eigenvalues --    2.48865   3.41979   3.53484
          Condensed to atoms (all electrons):
               1          2          3          4          5          6
     1  O    8.267832   0.236353   0.236349  -0.001018   0.016302  -0.000033
     2  H    0.236353   0.396866  -0.022052   0.000085  -0.000491   0.000001
     3  H    0.236349  -0.022052   0.396901   0.000083  -0.000489   0.000001
     4  O   -0.001018   0.000085   0.000083   8.316985   0.221243   0.235212
     5  H    0.016302  -0.000491  -0.000489   0.221243   0.414896  -0.023706
     6  H   -0.000033   0.000001   0.000001   0.235212  -0.023706   0.410837
 Mulliken charges:
               1
     1  O   -0.755785
     2  H    0.389238
     3  H    0.389206
     4  O   -0.772591
     5  H    0.372246
     6  H    0.377686
 Sum of Mulliken charges =   0.00000
 Mulliken charges with hydrogens summed into heavy atoms:
               1
     1  O    0.022659
     4  O   -0.022659
 Electronic spatial extent (au):  <R**2>=            290.9845
 Charge=              0.0000 electrons
 Dipole moment (field-independent basis, Debye):
    X=              1.9608    Y=              0.2823    Z=             -0.0060  Tot=              1.9811
 Quadrupole moment (field-independent basis, Debye-Ang):
   XX=            -14.0516   YY=            -11.6576   ZZ=            -11.5516
   XY=              8.1481   XZ=             -0.1288   YZ=              0.0080
 Traceless Quadrupole moment (field-independent basis, Debye-Ang):
   XX=             -1.6314   YY=              0.7627   ZZ=              0.8687
   XY=              8.1481   XZ=             -0.1288   YZ=              0.0080
 Octapole moment (field-independent basis, Debye-Ang**2):
  XXX=              7.9639  YYY=             -0.3975  ZZZ=             -0.0535  XYY=             -1.0104
  XXY=             -0.8281  XXZ=             -0.0002  XZZ=              6.0827  YZZ=              0.9062
  YYZ=              0.0353  XYZ=              0.1113
 Hexadecapole moment (field-independent basis, Debye-Ang**3):
 XXXX=           -288.5841 YYYY=            -12.4275 ZZZZ=            -11.3990 XXXY=             40.3850
 XXXZ=             -0.5145 YYYX=              5.9674 YYYZ=              0.0166 ZZZX=             -0.1566
 ZZZY=             -0.0024 XXYY=            -43.5408 XXZZ=            -44.1714 YYZZ=             -3.8507
 XXYZ=              0.0256 YYXZ=              0.0124 ZZXY=              2.9962
 N-N= 3.214301850835D+01 E-N=-4.251382513199D+02  KE= 1.514387830005D+02
 No NMR shielding tensors so no spin-rotation constants.
 Leave Link  601 at Thu Jan 29 10:54:34 2015, MaxMem=    33554432 cpu:         0.3
 (Enter /appl/chem/G09RevD.01/g09/l9999.exe)

 This type of calculation cannot be archived.


 AN OPTIMIST IS A GUY
 THAT HAS NEVER HAD
 MUCH EXPERIENCE
   (CERTAIN MAXIMS OF ARCHY  -- DON MARQUIS)
 Job cpu time:       0 days  0 hours  8 minutes 33.7 seconds.
 File lengths (MBytes):  RWF=      5 Int=      0 D2E=      0 Chk=      2 Scr=      1
 Normal termination of Gaussian 09 at Thu Jan 29 10:54:34 2015.
