 Entering Gaussian System, Link 0=g09
 Input=dimer.com
 Output=dimer.log
 Initial command:
 /appl/chem/G09RevD.01/g09/l1.exe "/wrk/asillanp/tst/g09/env/Gau-12355.inp" -scrdir="/wrk/asillanp/tst/g09/env/"
 Entering Link 1 = /appl/chem/G09RevD.01/g09/l1.exe PID=     12360.
  
 Copyright (c) 1988,1990,1992,1993,1995,1998,2003,2009,2013,
            Gaussian, Inc.  All Rights Reserved.
  
 This is part of the Gaussian(R) 09 program.  It is based on
 the Gaussian(R) 03 system (copyright 2003, Gaussian, Inc.),
 the Gaussian(R) 98 system (copyright 1998, Gaussian, Inc.),
 the Gaussian(R) 94 system (copyright 1995, Gaussian, Inc.),
 the Gaussian 92(TM) system (copyright 1992, Gaussian, Inc.),
 the Gaussian 90(TM) system (copyright 1990, Gaussian, Inc.),
 the Gaussian 88(TM) system (copyright 1988, Gaussian, Inc.),
 the Gaussian 86(TM) system (copyright 1986, Carnegie Mellon
 University), and the Gaussian 82(TM) system (copyright 1983,
 Carnegie Mellon University). Gaussian is a federally registered
 trademark of Gaussian, Inc.
  
 This software contains proprietary and confidential information,
 including trade secrets, belonging to Gaussian, Inc.
  
 This software is provided under written license and may be
 used, copied, transmitted, or stored only in accord with that
 written license.
  
 The following legend is applicable only to US Government
 contracts under FAR:
  
                    RESTRICTED RIGHTS LEGEND
  
 Use, reproduction and disclosure by the US Government is
 subject to restrictions as set forth in subparagraphs (a)
 and (c) of the Commercial Computer Software - Restricted
 Rights clause in FAR 52.227-19.
  
 Gaussian, Inc.
 340 Quinnipiac St., Bldg. 40, Wallingford CT 06492
  
  
 ---------------------------------------------------------------
 Warning -- This program may not be used in any manner that
 competes with the business of Gaussian, Inc. or will provide
 assistance to any competitor of Gaussian, Inc.  The licensee
 of this program is prohibited from giving any competitor of
 Gaussian, Inc. access to this program.  By using this program,
 the user acknowledges that Gaussian, Inc. is engaged in the
 business of creating and licensing software in the field of
 computational chemistry and represents and warrants to the
 licensee that it is not a competitor of Gaussian, Inc. and that
 it will not use this program in any manner prohibited above.
 ---------------------------------------------------------------
  

 Cite this work as:
 Gaussian 09, Revision D.01,
 M. J. Frisch, G. W. Trucks, H. B. Schlegel, G. E. Scuseria, 
 M. A. Robb, J. R. Cheeseman, G. Scalmani, V. Barone, B. Mennucci, 
 G. A. Petersson, H. Nakatsuji, M. Caricato, X. Li, H. P. Hratchian, 
 A. F. Izmaylov, J. Bloino, G. Zheng, J. L. Sonnenberg, M. Hada, 
 M. Ehara, K. Toyota, R. Fukuda, J. Hasegawa, M. Ishida, T. Nakajima, 
 Y. Honda, O. Kitao, H. Nakai, T. Vreven, J. A. Montgomery, Jr., 
 J. E. Peralta, F. Ogliaro, M. Bearpark, J. J. Heyd, E. Brothers, 
 K. N. Kudin, V. N. Staroverov, T. Keith, R. Kobayashi, J. Normand, 
 K. Raghavachari, A. Rendell, J. C. Burant, S. S. Iyengar, J. Tomasi, 
 M. Cossi, N. Rega, J. M. Millam, M. Klene, J. E. Knox, J. B. Cross, 
 V. Bakken, C. Adamo, J. Jaramillo, R. Gomperts, R. E. Stratmann, 
 O. Yazyev, A. J. Austin, R. Cammi, C. Pomelli, J. W. Ochterski, 
 R. L. Martin, K. Morokuma, V. G. Zakrzewski, G. A. Voth, 
 P. Salvador, J. J. Dannenberg, S. Dapprich, A. D. Daniels, 
 O. Farkas, J. B. Foresman, J. V. Ortiz, J. Cioslowski, 
 and D. J. Fox, Gaussian, Inc., Wallingford CT, 2013.
 
 ******************************************
 Gaussian 09:  ES64L-G09RevD.01 24-Apr-2013
                29-Jan-2015 
 ******************************************
 %chk=dimer
 ------------------------------------------
 #PBEPBE/6-31G* EmpiricalDispersion=GD2 opt
 ------------------------------------------
 1/14=-1,18=20,19=15,26=3,38=1/1,3;
 2/9=110,12=2,17=6,18=5,40=1/2;
 3/5=1,6=6,7=1,11=2,16=1,25=1,30=1,71=1,74=1009,124=21/1,2,3;
 4//1;
 5/5=2,38=5/2;
 6/7=2,8=2,9=2,10=2,28=1/1;
 7//1,2,3,16;
 1/14=-1,18=20,19=15,26=3/3(2);
 2/9=110/2;
 99//99;
 2/9=110/2;
 3/5=1,6=6,7=1,11=2,16=1,25=1,30=1,71=1,74=1009,124=21/1,2,3;
 4/5=5,16=3,69=1/1;
 5/5=2,38=5/2;
 7//1,2,3,16;
 1/14=-1,18=20,19=15,26=3/3(-5);
 2/9=110/2;
 6/7=2,8=2,9=2,10=2,19=2,28=1/1;
 99/9=1/99;
 Leave Link    1 at Thu Jan 29 09:51:13 2015, MaxMem=           0 cpu:         3.2
 (Enter /appl/chem/G09RevD.01/g09/l101.exe)
 -------
 dimeeri
 -------
 Symbolic Z-matrix:
 Charge =  0 Multiplicity = 1
 O                     0.1616    1.0543    2.3302 
 H                    -0.5932    0.4848    2.1817 
 H                     0.9365    0.5028    2.2216 
 O                     0.2835    3.3734    2.4931 
 H                     0.2329    2.4185    2.5336 
 H                     0.3547    3.6748    3.3989 
 
 Add virtual bond connecting atoms H5         and O1         Dist= 2.61D+00.
 Add atom      1 valence  3 ND=      2 dihedral       2      1      3      5
 NAtoms=      6 NQM=        6 NQMF=       0 NMMI=      0 NMMIF=      0
                NMic=       0 NMicF=      0.
                    Isotopes and Nuclear Properties:
 (Nuclear quadrupole moments (NQMom) in fm**2, nuclear magnetic moments (NMagM)
  in nuclear magnetons)

  Atom         1           2           3           4           5           6
 IAtWgt=          16           1           1          16           1           1
 AtmWgt=  15.9949146   1.0078250   1.0078250  15.9949146   1.0078250   1.0078250
 NucSpn=           0           1           1           0           1           1
 AtZEff=   0.0000000   0.0000000   0.0000000   0.0000000   0.0000000   0.0000000
 NQMom=    0.0000000   0.0000000   0.0000000   0.0000000   0.0000000   0.0000000
 NMagM=    0.0000000   2.7928460   2.7928460   0.0000000   2.7928460   2.7928460
 AtZNuc=   8.0000000   1.0000000   1.0000000   8.0000000   1.0000000   1.0000000
 Leave Link  101 at Thu Jan 29 09:51:13 2015, MaxMem=    33554432 cpu:         0.1
 (Enter /appl/chem/G09RevD.01/g09/l103.exe)

 GradGradGradGradGradGradGradGradGradGradGradGradGradGradGradGradGradGrad
 Berny optimization.
 Initialization pass.
                           ----------------------------
                           !    Initial Parameters    !
                           ! (Angstroms and Degrees)  !
 --------------------------                            --------------------------
 ! Name  Definition              Value          Derivative Info.                !
 --------------------------------------------------------------------------------
 ! R1    R(1,2)                  0.9571         estimate D2E/DX2                !
 ! R2    R(1,3)                  0.9573         estimate D2E/DX2                !
 ! R3    R(1,5)                  1.3811         estimate D2E/DX2                !
 ! R4    R(4,5)                  0.9571         estimate D2E/DX2                !
 ! R5    R(4,6)                  0.9573         estimate D2E/DX2                !
 ! A1    A(2,1,3)              106.1388         estimate D2E/DX2                !
 ! A2    A(2,1,5)              130.6379         estimate D2E/DX2                !
 ! A3    A(3,1,5)              122.9538         estimate D2E/DX2                !
 ! A4    A(5,4,6)              106.1421         estimate D2E/DX2                !
 ! A5    L(1,5,4,6,-1)         190.864          estimate D2E/DX2                !
 ! A6    L(1,5,4,6,-2)         178.4289         estimate D2E/DX2                !
 ! D1    D(2,1,3,5)            174.6105         estimate D2E/DX2                !
 ! D2    D(2,1,4,6)            101.8829         estimate D2E/DX2                !
 ! D3    D(3,1,4,6)            -91.5851         estimate D2E/DX2                !
 --------------------------------------------------------------------------------
 Trust Radius=3.00D-01 FncErr=1.00D-07 GrdErr=1.00D-06
 Number of steps in this run=     24 maximum allowed number of steps=    100.
 GradGradGradGradGradGradGradGradGradGradGradGradGradGradGradGradGradGrad

 Leave Link  103 at Thu Jan 29 09:51:14 2015, MaxMem=    33554432 cpu:         0.0
 (Enter /appl/chem/G09RevD.01/g09/l202.exe)
                          Input orientation:                          
 ---------------------------------------------------------------------
 Center     Atomic      Atomic             Coordinates (Angstroms)
 Number     Number       Type             X           Y           Z
 ---------------------------------------------------------------------
      1          8           0        0.161600    1.054300    2.330200
      2          1           0       -0.593200    0.484800    2.181700
      3          1           0        0.936500    0.502800    2.221600
      4          8           0        0.283500    3.373400    2.493100
      5          1           0        0.232900    2.418500    2.533600
      6          1           0        0.354700    3.674800    3.398900
 ---------------------------------------------------------------------
                    Distance matrix (angstroms):
                    1          2          3          4          5
     1  O    0.000000
     2  H    0.957134   0.000000
     3  H    0.957296   1.530326   0.000000
     4  O    2.328008   3.034729   2.956428   0.000000
     5  H    1.381122   2.132011   2.064535   0.957097   0.000000
     6  H    2.836623   3.543471   3.433091   0.957280   1.530317
                    6
     6  H    0.000000
 Stoichiometry    H4O2
 Framework group  C1[X(H4O2)]
 Deg. of freedom    12
 Full point group                 C1      NOp   1
 Largest Abelian subgroup         C1      NOp   1
 Largest concise Abelian subgroup C1      NOp   1
                         Standard orientation:                         
 ---------------------------------------------------------------------
 Center     Atomic      Atomic             Coordinates (Angstroms)
 Number     Number       Type             X           Y           Z
 ---------------------------------------------------------------------
      1          8           0        1.078640   -0.002387    0.024471
      2          1           0        1.702091   -0.728456    0.039870
      3          1           0        1.597361    0.790956   -0.109520
      4          8           0       -1.245192   -0.021658   -0.113561
      5          1           0       -0.302259   -0.001844    0.049283
      6          1           0       -1.664771    0.131704    0.733090
 ---------------------------------------------------------------------
 Rotational constants (GHZ):    263.8992518      9.6266387      9.5425148
 Leave Link  202 at Thu Jan 29 09:51:15 2015, MaxMem=    33554432 cpu:         0.0
 (Enter /appl/chem/G09RevD.01/g09/l301.exe)
 Standard basis: 6-31G(d) (6D, 7F)
 Ernie: Thresh=  0.10000D-02 Tol=  0.10000D-05 Strict=F.
 There are    38 symmetry adapted cartesian basis functions of A   symmetry.
 There are    38 symmetry adapted basis functions of A   symmetry.
    38 basis functions,    72 primitive gaussians,    38 cartesian basis functions
    10 alpha electrons       10 beta electrons
       nuclear repulsion energy        41.1227189552 Hartrees.
 IExCor= 1009 DFT=T Ex=PBE Corr=PBE ExCW=0 ScaHFX=  0.000000
 ScaDFX=  1.000000  1.000000  1.000000  1.000000 ScalE2=  1.000000  1.000000
 IRadAn=      0 IRanWt=     -1 IRanGd=            0 ICorTp=0 IEmpDi=121
 NAtoms=    6 NActive=    6 NUniq=    6 SFac= 1.00D+00 NAtFMM=   60 NAOKFM=F Big=F
 Integral buffers will be    131072 words long.
 Raffenetti 2 integral format.
 Two-electron integral symmetry is turned on.
 R6Disp:  Grimme-D2 Dispersion energy=       -0.0012771256 Hartrees.
 Nuclear repulsion after empirical dispersion term =       41.1214418296 Hartrees.
 Leave Link  301 at Thu Jan 29 09:51:17 2015, MaxMem=    33554432 cpu:         0.1
 (Enter /appl/chem/G09RevD.01/g09/l302.exe)
 NPDir=0 NMtPBC=     1 NCelOv=     1 NCel=       1 NClECP=     1 NCelD=      1
         NCelK=      1 NCelE2=     1 NClLst=     1 CellRange=     0.0.
 One-electron integrals computed using PRISM.
 NBasis=    38 RedAO= T EigKep=  8.86D-03  NBF=    38
 NBsUse=    38 1.00D-06 EigRej= -1.00D+00 NBFU=    38
 Precomputing XC quadrature grid using
 IXCGrd= 4 IRadAn=           0 IRanWt=          -1 IRanGd=           0 AccXCQ= 0.00D+00.
 Generated NRdTot=       0 NPtTot=           0 NUsed=           0 NTot=          32
 NSgBfM=    38    38    38    38    38 MxSgAt=     6 MxSgA2=     6.
 Leave Link  302 at Thu Jan 29 09:51:20 2015, MaxMem=    33554432 cpu:         0.3
 (Enter /appl/chem/G09RevD.01/g09/l303.exe)
 DipDrv:  MaxL=1.
 Leave Link  303 at Thu Jan 29 09:51:22 2015, MaxMem=    33554432 cpu:         0.1
 (Enter /appl/chem/G09RevD.01/g09/l401.exe)
 ExpMin= 1.61D-01 ExpMax= 5.48D+03 ExpMxC= 8.25D+02 IAcc=1 IRadAn=         1 AccDes= 0.00D+00
 Harris functional with IExCor= 1009 and IRadAn=       1 diagonalized for initial guess.
 HarFok:  IExCor= 1009 AccDes= 0.00D+00 IRadAn=         1 IDoV= 1 UseB2=F ITyADJ=14
 ICtDFT=  3500011 ScaDFX=  1.000000  1.000000  1.000000  1.000000
 FoFCou: FMM=F IPFlag=           0 FMFlag=      100000 FMFlg1=           0
         NFxFlg=           0 DoJE=T BraDBF=F KetDBF=T FulRan=T
         wScrn=  0.000000 ICntrl=     500 IOpCl=  0 I1Cent=   200000004 NGrid=           0
         NMat0=    1 NMatS0=      1 NMatT0=    0 NMatD0=    1 NMtDS0=    0 NMtDT0=    0
 Petite list used in FoFCou.
 Harris En= -152.745437173534    
 JPrj=0 DoOrth=F DoCkMO=F.
 Leave Link  401 at Thu Jan 29 09:51:25 2015, MaxMem=    33554432 cpu:         0.4
 (Enter /appl/chem/G09RevD.01/g09/l502.exe)
 Closed shell SCF:
 Using DIIS extrapolation, IDIIS=  1040.
 Integral symmetry usage will be decided dynamically.
 Keep J ints in memory in canonical form, NReq=1158825.
 IVT=       23404 IEndB=       23404 NGot=    33554432 MDV=    33256118
 LenX=    33256118 LenY=    33254233
 Requested convergence on RMS density matrix=1.00D-08 within 128 cycles.
 Requested convergence on MAX density matrix=1.00D-06.
 Requested convergence on             energy=1.00D-06.
 No special actions if energy rises.
 FoFCou: FMM=F IPFlag=           0 FMFlag=           0 FMFlg1=           0
         NFxFlg=           0 DoJE=F BraDBF=F KetDBF=F FulRan=T
         wScrn=  0.000000 ICntrl=     600 IOpCl=  0 I1Cent=           0 NGrid=           0
         NMat0=    1 NMatS0=    741 NMatT0=    0 NMatD0=    1 NMtDS0=    0 NMtDT0=    0
 Symmetry not used in FoFCou.
 Integral accuracy reduced to 1.0D-05 until final iterations.

 Cycle   1  Pass 0  IDiag  1:
 E= -152.496272801037    
 DIIS: error= 7.04D-02 at cycle   1 NSaved=   1.
 NSaved= 1 IEnMin= 1 EnMin= -152.496272801037     IErMin= 1 ErrMin= 7.04D-02
 ErrMax= 7.04D-02  0.00D+00 EMaxC= 1.00D-01 BMatC= 1.85D-01 BMatP= 1.85D-01
 IDIUse=3 WtCom= 2.96D-01 WtEn= 7.04D-01
 Coeff-Com:  0.100D+01
 Coeff-En:   0.100D+01
 Coeff:      0.100D+01
 Gap=     0.007 Goal=   None    Shift=    0.000
 GapD=    0.007 DampG=0.250 DampE=0.500 DampFc=0.2500 IDamp=-1.
 Damping current iteration by 2.50D-01
 RMSDP=2.82D-02 MaxDP=3.26D-01              OVMax= 2.84D-01

 Cycle   2  Pass 0  IDiag  1:
 E= -152.548650718096     Delta-E=       -0.052377917059 Rises=F Damp=T
 DIIS: error= 2.21D-02 at cycle   2 NSaved=   2.
 NSaved= 2 IEnMin= 2 EnMin= -152.548650718096     IErMin= 2 ErrMin= 2.21D-02
 ErrMax= 2.21D-02  0.00D+00 EMaxC= 1.00D-01 BMatC= 1.98D-02 BMatP= 1.85D-01
 IDIUse=3 WtCom= 7.79D-01 WtEn= 2.21D-01
 Coeff-Com: -0.464D+00 0.146D+01
 Coeff-En:   0.000D+00 0.100D+01
 Coeff:     -0.361D+00 0.136D+01
 Gap=     0.159 Goal=   None    Shift=    0.000
 RMSDP=4.06D-03 MaxDP=3.62D-02 DE=-5.24D-02 OVMax= 2.08D-01

 Cycle   3  Pass 0  IDiag  1:
 E= -152.635610799909     Delta-E=       -0.086960081813 Rises=F Damp=F
 DIIS: error= 6.03D-03 at cycle   3 NSaved=   3.
 NSaved= 3 IEnMin= 3 EnMin= -152.635610799909     IErMin= 3 ErrMin= 6.03D-03
 ErrMax= 6.03D-03  0.00D+00 EMaxC= 1.00D-01 BMatC= 2.09D-03 BMatP= 1.98D-02
 IDIUse=3 WtCom= 9.40D-01 WtEn= 6.03D-02
 Coeff-Com:  0.671D-01 0.651D-01 0.868D+00
 Coeff-En:   0.000D+00 0.000D+00 0.100D+01
 Coeff:      0.631D-01 0.612D-01 0.876D+00
 Gap=     0.177 Goal=   None    Shift=    0.000
 RMSDP=9.82D-04 MaxDP=1.15D-02 DE=-8.70D-02 OVMax= 1.27D-02

 Cycle   4  Pass 0  IDiag  1:
 E= -152.636782417645     Delta-E=       -0.001171617736 Rises=F Damp=F
 DIIS: error= 3.12D-03 at cycle   4 NSaved=   4.
 NSaved= 4 IEnMin= 4 EnMin= -152.636782417645     IErMin= 4 ErrMin= 3.12D-03
 ErrMax= 3.12D-03  0.00D+00 EMaxC= 1.00D-01 BMatC= 4.07D-04 BMatP= 2.09D-03
 IDIUse=3 WtCom= 9.69D-01 WtEn= 3.12D-02
 Coeff-Com:  0.957D-01-0.120D+00 0.595D+00 0.430D+00
 Coeff-En:   0.000D+00 0.000D+00 0.846D-01 0.915D+00
 Coeff:      0.927D-01-0.116D+00 0.579D+00 0.445D+00
 Gap=     0.181 Goal=   None    Shift=    0.000
 RMSDP=3.69D-04 MaxDP=4.24D-03 DE=-1.17D-03 OVMax= 4.47D-03

 Cycle   5  Pass 0  IDiag  1:
 E= -152.637059798301     Delta-E=       -0.000277380657 Rises=F Damp=F
 DIIS: error= 3.49D-04 at cycle   5 NSaved=   5.
 NSaved= 5 IEnMin= 5 EnMin= -152.637059798301     IErMin= 5 ErrMin= 3.49D-04
 ErrMax= 3.49D-04  0.00D+00 EMaxC= 1.00D-01 BMatC= 7.12D-06 BMatP= 4.07D-04
 IDIUse=3 WtCom= 9.97D-01 WtEn= 3.49D-03
 Coeff-Com:  0.349D-01-0.460D-01 0.181D+00 0.162D+00 0.668D+00
 Coeff-En:   0.000D+00 0.000D+00 0.000D+00 0.000D+00 0.100D+01
 Coeff:      0.348D-01-0.458D-01 0.180D+00 0.162D+00 0.669D+00
 Gap=     0.181 Goal=   None    Shift=    0.000
 RMSDP=5.32D-05 MaxDP=6.43D-04 DE=-2.77D-04 OVMax= 5.57D-04

 Cycle   6  Pass 0  IDiag  1:
 E= -152.637065125114     Delta-E=       -0.000005326813 Rises=F Damp=F
 DIIS: error= 1.32D-04 at cycle   6 NSaved=   6.
 NSaved= 6 IEnMin= 6 EnMin= -152.637065125114     IErMin= 6 ErrMin= 1.32D-04
 ErrMax= 1.32D-04  0.00D+00 EMaxC= 1.00D-01 BMatC= 4.76D-07 BMatP= 7.12D-06
 IDIUse=3 WtCom= 9.99D-01 WtEn= 1.32D-03
 Coeff-Com:  0.859D-02-0.103D-01 0.363D-01 0.212D-01 0.133D+00 0.811D+00
 Coeff-En:   0.000D+00 0.000D+00 0.000D+00 0.000D+00 0.000D+00 0.100D+01
 Coeff:      0.858D-02-0.103D-01 0.363D-01 0.212D-01 0.133D+00 0.811D+00
 Gap=     0.182 Goal=   None    Shift=    0.000
 RMSDP=1.52D-05 MaxDP=1.73D-04 DE=-5.33D-06 OVMax= 1.81D-04

 Cycle   7  Pass 0  IDiag  1:
 E= -152.637065478891     Delta-E=       -0.000000353777 Rises=F Damp=F
 DIIS: error= 2.43D-05 at cycle   7 NSaved=   7.
 NSaved= 7 IEnMin= 7 EnMin= -152.637065478891     IErMin= 7 ErrMin= 2.43D-05
 ErrMax= 2.43D-05  0.00D+00 EMaxC= 1.00D-01 BMatC= 1.97D-08 BMatP= 4.76D-07
 IDIUse=1 WtCom= 1.00D+00 WtEn= 0.00D+00
 Coeff-Com:  0.892D-03-0.734D-03 0.249D-02-0.141D-02-0.572D-02 0.103D+00
 Coeff-Com:  0.901D+00
 Coeff:      0.892D-03-0.734D-03 0.249D-02-0.141D-02-0.572D-02 0.103D+00
 Coeff:      0.901D+00
 Gap=     0.182 Goal=   None    Shift=    0.000
 RMSDP=3.36D-06 MaxDP=3.77D-05 DE=-3.54D-07 OVMax= 3.71D-05

 Initial convergence to 1.0D-05 achieved.  Increase integral accuracy.
 Cycle   8  Pass 1  IDiag  1:
 E= -152.637052485497     Delta-E=        0.000012993395 Rises=F Damp=F
 DIIS: error= 2.48D-06 at cycle   1 NSaved=   1.
 NSaved= 1 IEnMin= 1 EnMin= -152.637052485497     IErMin= 1 ErrMin= 2.48D-06
 ErrMax= 2.48D-06  0.00D+00 EMaxC= 1.00D-01 BMatC= 5.28D-10 BMatP= 5.28D-10
 IDIUse=1 WtCom= 1.00D+00 WtEn= 0.00D+00
 Coeff-Com:  0.100D+01
 Coeff:      0.100D+01
 Gap=     0.182 Goal=   None    Shift=    0.000
 RMSDP=3.36D-06 MaxDP=3.77D-05 DE= 1.30D-05 OVMax= 9.14D-06

 Cycle   9  Pass 1  IDiag  1:
 E= -152.637052485750     Delta-E=       -0.000000000253 Rises=F Damp=F
 DIIS: error= 3.12D-06 at cycle   2 NSaved=   2.
 NSaved= 2 IEnMin= 2 EnMin= -152.637052485750     IErMin= 1 ErrMin= 2.48D-06
 ErrMax= 3.12D-06  0.00D+00 EMaxC= 1.00D-01 BMatC= 4.41D-10 BMatP= 5.28D-10
 IDIUse=1 WtCom= 1.00D+00 WtEn= 0.00D+00
 Coeff-Com:  0.472D+00 0.528D+00
 Coeff:      0.472D+00 0.528D+00
 Gap=     0.182 Goal=   None    Shift=    0.000
 RMSDP=5.12D-07 MaxDP=5.46D-06 DE=-2.53D-10 OVMax= 6.10D-06

 Cycle  10  Pass 1  IDiag  1:
 E= -152.637052486010     Delta-E=       -0.000000000261 Rises=F Damp=F
 DIIS: error= 1.26D-06 at cycle   3 NSaved=   3.
 NSaved= 3 IEnMin= 3 EnMin= -152.637052486010     IErMin= 3 ErrMin= 1.26D-06
 ErrMax= 1.26D-06  0.00D+00 EMaxC= 1.00D-01 BMatC= 7.04D-11 BMatP= 4.41D-10
 IDIUse=1 WtCom= 1.00D+00 WtEn= 0.00D+00
 Coeff-Com:  0.542D-01 0.288D+00 0.658D+00
 Coeff:      0.542D-01 0.288D+00 0.658D+00
 Gap=     0.182 Goal=   None    Shift=    0.000
 RMSDP=1.70D-07 MaxDP=1.77D-06 DE=-2.61D-10 OVMax= 1.93D-06

 Cycle  11  Pass 1  IDiag  1:
 E= -152.637052486059     Delta-E=       -0.000000000049 Rises=F Damp=F
 DIIS: error= 1.46D-07 at cycle   4 NSaved=   4.
 NSaved= 4 IEnMin= 4 EnMin= -152.637052486059     IErMin= 4 ErrMin= 1.46D-07
 ErrMax= 1.46D-07  0.00D+00 EMaxC= 1.00D-01 BMatC= 1.38D-12 BMatP= 7.04D-11
 IDIUse=1 WtCom= 1.00D+00 WtEn= 0.00D+00
 Coeff-Com:  0.246D-02 0.847D-01 0.247D+00 0.666D+00
 Coeff:      0.246D-02 0.847D-01 0.247D+00 0.666D+00
 Gap=     0.182 Goal=   None    Shift=    0.000
 RMSDP=2.85D-08 MaxDP=2.06D-07 DE=-4.88D-11 OVMax= 3.21D-07

 Cycle  12  Pass 1  IDiag  1:
 E= -152.637052486060     Delta-E=       -0.000000000001 Rises=F Damp=F
 DIIS: error= 7.20D-08 at cycle   5 NSaved=   5.
 NSaved= 5 IEnMin= 5 EnMin= -152.637052486060     IErMin= 5 ErrMin= 7.20D-08
 ErrMax= 7.20D-08  0.00D+00 EMaxC= 1.00D-01 BMatC= 2.02D-13 BMatP= 1.38D-12
 IDIUse=1 WtCom= 1.00D+00 WtEn= 0.00D+00
 Coeff-Com:  0.795D-03 0.448D-01 0.134D+00 0.411D+00 0.410D+00
 Coeff:      0.795D-03 0.448D-01 0.134D+00 0.411D+00 0.410D+00
 Gap=     0.182 Goal=   None    Shift=    0.000
 RMSDP=8.86D-09 MaxDP=9.24D-08 DE=-1.08D-12 OVMax= 9.92D-08

 SCF Done:  E(RPBE-PBE) =  -152.637052486     A.U. after   12 cycles
            NFock= 12  Conv=0.89D-08     -V/T= 2.0059
 KE= 1.517485854820D+02 PE=-4.434279894947D+02 EE= 9.792090969701D+01
 Leave Link  502 at Thu Jan 29 09:51:27 2015, MaxMem=    33554432 cpu:         2.3
 (Enter /appl/chem/G09RevD.01/g09/l601.exe)
 Copying SCF densities to generalized density rwf, IOpCl= 0 IROHF=0.

 **********************************************************************

            Population analysis using the SCF density.

 **********************************************************************

 Orbital symmetries:
       Occupied  (A) (A) (A) (A) (A) (A) (A) (A) (A) (A)
       Virtual   (A) (A) (A) (A) (A) (A) (A) (A) (A) (A) (A) (A)
                 (A) (A) (A) (A) (A) (A) (A) (A) (A) (A) (A) (A)
                 (A) (A) (A) (A)
 The electronic state is 1-A.
 Alpha  occ. eigenvalues --  -18.80634 -18.67525  -0.96820  -0.84245  -0.51998
 Alpha  occ. eigenvalues --   -0.46341  -0.33693  -0.28335  -0.23131  -0.16722
 Alpha virt. eigenvalues --    0.01450   0.09532   0.11878   0.33557   0.67563
 Alpha virt. eigenvalues --    0.71931   0.75448   0.80089   0.84032   0.87803
 Alpha virt. eigenvalues --    0.92437   1.00813   1.05198   1.08773   1.14189
 Alpha virt. eigenvalues --    1.49788   1.61479   1.65322   1.73005   1.73961
 Alpha virt. eigenvalues --    1.77439   1.84124   2.17522   2.42819   2.45640
 Alpha virt. eigenvalues --    2.89282   3.52123   3.77422
          Condensed to atoms (all electrons):
               1          2          3          4          5          6
     1  O    8.312573   0.239774   0.239773  -0.090234   0.033188   0.005211
     2  H    0.239774   0.360456  -0.015003   0.004325   0.000965  -0.000263
     3  H    0.239773  -0.015003   0.360540   0.004776   0.000246  -0.000335
     4  O   -0.090234   0.004325   0.004776   8.434819   0.255496   0.229100
     5  H    0.033188   0.000965   0.000246   0.255496   0.321792  -0.022129
     6  H    0.005211  -0.000263  -0.000335   0.229100  -0.022129   0.440044
 Mulliken charges:
               1
     1  O   -0.740285
     2  H    0.409746
     3  H    0.410004
     4  O   -0.838281
     5  H    0.410443
     6  H    0.348373
 Sum of Mulliken charges =   0.00000
 Mulliken charges with hydrogens summed into heavy atoms:
               1
     1  O    0.079465
     4  O   -0.079465
 Electronic spatial extent (au):  <R**2>=            138.3244
 Charge=              0.0000 electrons
 Dipole moment (field-independent basis, Debye):
    X=              4.1791    Y=              0.4005    Z=              1.4797  Tot=              4.4514
 Quadrupole moment (field-independent basis, Debye-Ang):
   XX=             -8.7338   YY=            -11.2780   ZZ=            -12.9993
   XY=             -0.4933   XZ=             -3.1388   YZ=             -0.0674
 Traceless Quadrupole moment (field-independent basis, Debye-Ang):
   XX=              2.2699   YY=             -0.2743   ZZ=             -1.9956
   XY=             -0.4933   XZ=             -3.1388   YZ=             -0.0674
 Octapole moment (field-independent basis, Debye-Ang**2):
  XXX=             14.5136  YYY=              0.3910  ZZZ=              1.1118  XYY=              5.3986
  XXY=              0.6080  XXZ=              4.1357  XZZ=             -1.0092  YZZ=              0.1516
  YYZ=              0.1671  XYZ=             -0.8033
 Hexadecapole moment (field-independent basis, Debye-Ang**3):
 XXXX=            -99.5836 YYYY=            -10.9093 ZZZZ=            -11.4498 XXXY=             -2.3744
 XXXZ=             -9.1725 YYYX=              0.0099 YYYZ=             -0.2035 ZZZX=             -2.3788
 ZZZY=              0.0638 XXYY=            -17.4308 XXZZ=            -21.4933 YYZZ=             -4.0469
 XXYZ=             -0.1748 YYXZ=             -0.6563 ZZXY=             -0.2143
 N-N= 4.112144182959D+01 E-N=-4.434279884966D+02  KE= 1.517485854820D+02
 No NMR shielding tensors so no spin-rotation constants.
 Leave Link  601 at Thu Jan 29 09:51:28 2015, MaxMem=    33554432 cpu:         0.2
 (Enter /appl/chem/G09RevD.01/g09/l701.exe)
 Compute integral first derivatives.
 ... and contract with generalized density number  0.
 R6Disp: Adding Grimme-D2 dispersion energy 1st derivatives to the gradient.
 Leave Link  701 at Thu Jan 29 09:51:28 2015, MaxMem=    33554432 cpu:         0.2
 (Enter /appl/chem/G09RevD.01/g09/l702.exe)
 L702 exits ... SP integral derivatives will be done elsewhere.
 Leave Link  702 at Thu Jan 29 09:51:28 2015, MaxMem=    33554432 cpu:         0.0
 (Enter /appl/chem/G09RevD.01/g09/l703.exe)
 Compute integral first derivatives, UseDBF=F ICtDFT=           0.
 Integral derivatives from FoFJK, PRISM(SPDF).
 Calling FoFJK, ICntrl=      2527 FMM=F ISym2X=0 I1Cent= 0 IOpClX= 0 NMat=1 NMatS=1 NMatT=0.
 FoFJK:  IHMeth= 1 ICntrl=    2527 DoSepK=F KAlg= 0 I1Cent=   0 FoldK=F
 IRaf=         0 NMat=   1 IRICut=       1 DoRegI=T DoRafI=F ISym2E= 0.
 FoFCou: FMM=F IPFlag=           0 FMFlag=      100000 FMFlg1=         800
         NFxFlg=           0 DoJE=F BraDBF=F KetDBF=F FulRan=T
         wScrn=  0.000000 ICntrl=    2527 IOpCl=  0 I1Cent=           0 NGrid=           0
         NMat0=    1 NMatS0=      1 NMatT0=    0 NMatD0=    1 NMtDS0=    0 NMtDT0=    0
 Symmetry not used in FoFCou.
 Leave Link  703 at Thu Jan 29 09:51:29 2015, MaxMem=    33554432 cpu:         0.7
 (Enter /appl/chem/G09RevD.01/g09/l716.exe)
 Dipole        = 1.64419940D+00 1.57573597D-01 5.82156585D-01
 ***** Axes restored to original set *****
 -------------------------------------------------------------------
 Center     Atomic                   Forces (Hartrees/Bohr)
 Number     Number              X              Y              Z
 -------------------------------------------------------------------
      1        8          -0.001426256   -0.030695089    0.001022501
      2        1          -0.016154935   -0.010668417   -0.003258141
      3        1           0.015833205   -0.010571389   -0.002733631
      4        8           0.002784310    0.052528044   -0.014436125
      5        1          -0.002090253   -0.005678255    0.004108741
      6        1           0.001053930    0.005085107    0.015296655
 -------------------------------------------------------------------
 Cartesian Forces:  Max     0.052528044 RMS     0.016650655
 Leave Link  716 at Thu Jan 29 09:51:29 2015, MaxMem=    33554432 cpu:         0.0
 (Enter /appl/chem/G09RevD.01/g09/l103.exe)

 GradGradGradGradGradGradGradGradGradGradGradGradGradGradGradGradGradGrad
 Berny optimization.
 FormGI is forming the generalized inverse of G from B-inverse, IUseBI=4.
 Internal  Forces:  Max     0.057661487 RMS     0.022508193
 Search for a local minimum.
 Step number   1 out of a maximum of   24
 All quantities printed in internal units (Hartrees-Bohrs-Radians)
 RMS Force = .22508D-01 SwitMx=.10000D-02 MixMth= 1
 Mixed Optimization -- RFO/linear search
 Second derivative matrix not updated -- first step.
 The second derivative matrix:
                          R1        R2        R3        R4        R5
           R1           0.56094
           R2           0.00000   0.56059
           R3           0.00000   0.00000   0.15063
           R4           0.00000   0.00000   0.00000   0.56103
           R5           0.00000   0.00000   0.00000   0.00000   0.56063
           A1           0.00000   0.00000   0.00000   0.00000   0.00000
           A2           0.00000   0.00000   0.00000   0.00000   0.00000
           A3           0.00000   0.00000   0.00000   0.00000   0.00000
           A4           0.00000   0.00000   0.00000   0.00000   0.00000
           A5           0.00000   0.00000   0.00000   0.00000   0.00000
           A6           0.00000   0.00000   0.00000   0.00000   0.00000
           D1           0.00000   0.00000   0.00000   0.00000   0.00000
           D2           0.00000   0.00000   0.00000   0.00000   0.00000
           D3           0.00000   0.00000   0.00000   0.00000   0.00000
                          A1        A2        A3        A4        A5
           A1           0.16000
           A2           0.00000   0.16000
           A3           0.00000   0.00000   0.16000
           A4           0.00000   0.00000   0.00000   0.16000
           A5           0.00000   0.00000   0.00000   0.00000   0.01596
           A6           0.00000   0.00000   0.00000   0.00000   0.00000
           D1           0.00000   0.00000   0.00000   0.00000   0.00000
           D2           0.00000   0.00000   0.00000   0.00000   0.00000
           D3           0.00000   0.00000   0.00000   0.00000   0.00000
                          A6        D1        D2        D3
           A6           0.01596
           D1           0.00000   0.01593
           D2           0.00000   0.00000   0.00230
           D3           0.00000   0.00000   0.00000   0.00230
 ITU=  0
     Eigenvalues ---    0.00230   0.00948   0.01596   0.01605   0.15060
     Eigenvalues ---    0.15863   0.16000   0.16000   0.56059   0.56063
     Eigenvalues ---    0.56083   0.56094
 RFO step:  Lambda=-2.39084571D-02 EMin= 2.30000000D-03
 Linear search not attempted -- first point.
 Maximum step size (   0.300) exceeded in Quadratic search.
    -- Step size scaled by   0.856
 Iteration  1 RMS(Cart)=  0.09329478 RMS(Int)=  0.01463509
 Iteration  2 RMS(Cart)=  0.01615740 RMS(Int)=  0.00031388
 Iteration  3 RMS(Cart)=  0.00001822 RMS(Int)=  0.00031363
 Iteration  4 RMS(Cart)=  0.00000000 RMS(Int)=  0.00031363
 ITry= 1 IFail=0 DXMaxC= 2.18D-01 DCOld= 1.00D+10 DXMaxT= 3.00D-01 DXLimC= 3.00D+00 Rises=F
 Variable       Old X    -DE/DX   Delta X   Delta X   Delta X     New X
                                 (Linear)    (Quad)   (Total)
    R1        1.80872   0.01959   0.00000   0.02869   0.02869   1.83741
    R2        1.80903   0.01922   0.00000   0.02815   0.02815   1.83718
    R3        2.60994   0.05211   0.00000   0.25563   0.25563   2.86557
    R4        1.80865   0.05766   0.00000   0.08441   0.08441   1.89306
    R5        1.80900   0.01616   0.00000   0.02367   0.02367   1.83267
    A1        1.85247   0.00087   0.00000   0.00312   0.00301   1.85548
    A2        2.28006  -0.00104   0.00000  -0.00570  -0.00594   2.27412
    A3        2.14595   0.00002   0.00000  -0.00082  -0.00098   2.14497
    A4        1.85253  -0.00003   0.00000  -0.00012  -0.00012   1.85241
    A5        3.33121  -0.00577   0.00000  -0.12330  -0.12363   3.20758
    A6        3.11417  -0.00044   0.00000  -0.00943  -0.00941   3.10477
    D1        3.04753  -0.00155   0.00000  -0.03427  -0.03354   3.01399
    D2        1.77819  -0.00074   0.00000  -0.02616  -0.02559   1.75260
    D3       -1.59846   0.00022   0.00000   0.00914   0.00857  -1.58989
         Item               Value     Threshold  Converged?
 Maximum Force            0.057661     0.000450     NO 
 RMS     Force            0.022508     0.000300     NO 
 Maximum Displacement     0.218107     0.001800     NO 
 RMS     Displacement     0.108003     0.001200     NO 
 Predicted change in Energy=-1.280611D-02
 Lowest energy point so far.  Saving SCF results.
 GradGradGradGradGradGradGradGradGradGradGradGradGradGradGradGradGradGrad

 Leave Link  103 at Thu Jan 29 09:51:29 2015, MaxMem=    33554432 cpu:         0.0
 (Enter /appl/chem/G09RevD.01/g09/l202.exe)
                          Input orientation:                          
 ---------------------------------------------------------------------
 Center     Atomic      Atomic             Coordinates (Angstroms)
 Number     Number       Type             X           Y           Z
 ---------------------------------------------------------------------
      1          8           0        0.157424    0.983035    2.320621
      2          1           0       -0.608893    0.401035    2.181237
      3          1           0        0.946606    0.424541    2.218466
      4          8           0        0.293073    3.488817    2.511706
      5          1           0        0.229212    2.489725    2.476155
      6          1           0        0.358578    3.721447    3.450916
 ---------------------------------------------------------------------
                    Distance matrix (angstroms):
                    1          2          3          4          5
     1  O    0.000000
     2  H    0.972314   0.000000
     3  H    0.972193   1.556123   0.000000
     4  O    2.516716   3.233752   3.146886   0.000000
     5  H    1.516397   2.269807   2.201373   1.001762   0.000000
     6  H    2.969332   3.684186   3.568516   0.969806   1.576082
                    6
     6  H    0.000000
 Stoichiometry    H4O2
 Framework group  C1[X(H4O2)]
 Deg. of freedom    12
 Full point group                 C1      NOp   1
 RotChk:  IX=0 Diff= 3.40D-03
 Largest Abelian subgroup         C1      NOp   1
 Largest concise Abelian subgroup C1      NOp   1
                         Standard orientation:                         
 ---------------------------------------------------------------------
 Center     Atomic      Atomic             Coordinates (Angstroms)
 Number     Number       Type             X           Y           Z
 ---------------------------------------------------------------------
      1          8           0        1.166490   -0.002833    0.022772
      2          1           0        1.802416   -0.737798    0.051421
      3          1           0        1.689765    0.806058   -0.107756
      4          8           0       -1.346612   -0.020557   -0.110884
      5          1           0       -0.349321   -0.018453   -0.016362
      6          1           0       -1.701879    0.137315    0.777589
 ---------------------------------------------------------------------
 Rotational constants (GHZ):    251.1966078      8.3228612      8.2623452
 Leave Link  202 at Thu Jan 29 09:51:29 2015, MaxMem=    33554432 cpu:         0.0
 (Enter /appl/chem/G09RevD.01/g09/l301.exe)
 Standard basis: 6-31G(d) (6D, 7F)
 Ernie: Thresh=  0.10000D-02 Tol=  0.10000D-05 Strict=F.
 There are    38 symmetry adapted cartesian basis functions of A   symmetry.
 There are    38 symmetry adapted basis functions of A   symmetry.
    38 basis functions,    72 primitive gaussians,    38 cartesian basis functions
    10 alpha electrons       10 beta electrons
       nuclear repulsion energy        39.0697601804 Hartrees.
 IExCor= 1009 DFT=T Ex=PBE Corr=PBE ExCW=0 ScaHFX=  0.000000
 ScaDFX=  1.000000  1.000000  1.000000  1.000000 ScalE2=  1.000000  1.000000
 IRadAn=      0 IRanWt=     -1 IRanGd=            0 ICorTp=0 IEmpDi=121
 NAtoms=    6 NActive=    6 NUniq=    6 SFac= 1.00D+00 NAtFMM=   60 NAOKFM=F Big=F
 Integral buffers will be    131072 words long.
 Raffenetti 2 integral format.
 Two-electron integral symmetry is turned on.
 R6Disp:  Grimme-D2 Dispersion energy=       -0.0011726997 Hartrees.
 Nuclear repulsion after empirical dispersion term =       39.0685874807 Hartrees.
 Leave Link  301 at Thu Jan 29 09:51:29 2015, MaxMem=    33554432 cpu:         0.1
 (Enter /appl/chem/G09RevD.01/g09/l302.exe)
 NPDir=0 NMtPBC=     1 NCelOv=     1 NCel=       1 NClECP=     1 NCelD=      1
         NCelK=      1 NCelE2=     1 NClLst=     1 CellRange=     0.0.
 One-electron integrals computed using PRISM.
 NBasis=    38 RedAO= T EigKep=  1.05D-02  NBF=    38
 NBsUse=    38 1.00D-06 EigRej= -1.00D+00 NBFU=    38
 Precomputing XC quadrature grid using
 IXCGrd= 4 IRadAn=           0 IRanWt=          -1 IRanGd=           0 AccXCQ= 0.00D+00.
 Generated NRdTot=       0 NPtTot=           0 NUsed=           0 NTot=          32
 NSgBfM=    38    38    38    38    38 MxSgAt=     6 MxSgA2=     6.
 Leave Link  302 at Thu Jan 29 09:51:30 2015, MaxMem=    33554432 cpu:         0.2
 (Enter /appl/chem/G09RevD.01/g09/l303.exe)
 DipDrv:  MaxL=1.
 Leave Link  303 at Thu Jan 29 09:51:30 2015, MaxMem=    33554432 cpu:         0.1
 (Enter /appl/chem/G09RevD.01/g09/l401.exe)
 Initial guess from the checkpoint file:  "dimer.chk"
 B after Tr=     0.000000    0.000000    0.000000
         Rot=    0.999997    0.000437   -0.002232    0.000330 Ang=   0.26 deg.
 Guess basis will be translated and rotated to current coordinates.
 JPrj=2 DoOrth=T DoCkMO=T.
 Generating alternative initial guess.
 ExpMin= 1.61D-01 ExpMax= 5.48D+03 ExpMxC= 8.25D+02 IAcc=1 IRadAn=         1 AccDes= 0.00D+00
 Harris functional with IExCor= 1009 and IRadAn=       1 diagonalized for initial guess.
 HarFok:  IExCor= 1009 AccDes= 0.00D+00 IRadAn=         1 IDoV= 1 UseB2=F ITyADJ=14
 ICtDFT=  3500011 ScaDFX=  1.000000  1.000000  1.000000  1.000000
 FoFCou: FMM=F IPFlag=           0 FMFlag=      100000 FMFlg1=           0
         NFxFlg=           0 DoJE=T BraDBF=F KetDBF=T FulRan=T
         wScrn=  0.000000 ICntrl=     500 IOpCl=  0 I1Cent=   200000004 NGrid=           0
         NMat0=    1 NMatS0=      1 NMatT0=    0 NMatD0=    1 NMtDS0=    0 NMtDT0=    0
 Petite list used in FoFCou.
 Harris En= -152.749761380236    
 Leave Link  401 at Thu Jan 29 09:51:30 2015, MaxMem=    33554432 cpu:         0.4
 (Enter /appl/chem/G09RevD.01/g09/l502.exe)
 Closed shell SCF:
 Using DIIS extrapolation, IDIIS=  1040.
 Integral symmetry usage will be decided dynamically.
 Keep J ints in memory in canonical form, NReq=1158825.
 IVT=       23404 IEndB=       23404 NGot=    33554432 MDV=    33256118
 LenX=    33256118 LenY=    33254233
 Requested convergence on RMS density matrix=1.00D-08 within 128 cycles.
 Requested convergence on MAX density matrix=1.00D-06.
 Requested convergence on             energy=1.00D-06.
 No special actions if energy rises.
 FoFCou: FMM=F IPFlag=           0 FMFlag=           0 FMFlg1=           0
         NFxFlg=           0 DoJE=F BraDBF=F KetDBF=F FulRan=T
         wScrn=  0.000000 ICntrl=     600 IOpCl=  0 I1Cent=           0 NGrid=           0
         NMat0=    1 NMatS0=    741 NMatT0=    0 NMatD0=    1 NMtDS0=    0 NMtDT0=    0
 Symmetry not used in FoFCou.
 Integral accuracy reduced to 1.0D-05 until final iterations.

 Cycle   1  Pass 0  IDiag  1:
 E= -152.646797655948    
 DIIS: error= 6.45D-03 at cycle   1 NSaved=   1.
 NSaved= 1 IEnMin= 1 EnMin= -152.646797655948     IErMin= 1 ErrMin= 6.45D-03
 ErrMax= 6.45D-03  0.00D+00 EMaxC= 1.00D-01 BMatC= 2.21D-03 BMatP= 2.21D-03
 IDIUse=3 WtCom= 9.36D-01 WtEn= 6.45D-02
 Coeff-Com:  0.100D+01
 Coeff-En:   0.100D+01
 Coeff:      0.100D+01
 Gap=     1.010 Goal=   None    Shift=    0.000
 GapD=    1.010 DampG=2.000 DampE=1.000 DampFc=2.0000 IDamp=-1.
 RMSDP=2.26D-03 MaxDP=1.48D-02              OVMax= 2.37D-02

 Cycle   2  Pass 0  IDiag  1:
 E= -152.649758462664     Delta-E=       -0.002960806716 Rises=F Damp=F
 DIIS: error= 2.36D-03 at cycle   2 NSaved=   2.
 NSaved= 2 IEnMin= 2 EnMin= -152.649758462664     IErMin= 2 ErrMin= 2.36D-03
 ErrMax= 2.36D-03  0.00D+00 EMaxC= 1.00D-01 BMatC= 2.73D-04 BMatP= 2.21D-03
 IDIUse=3 WtCom= 9.76D-01 WtEn= 2.36D-02
 Coeff-Com:  0.157D+00 0.843D+00
 Coeff-En:   0.000D+00 0.100D+01
 Coeff:      0.153D+00 0.847D+00
 Gap=     0.183 Goal=   None    Shift=    0.000
 RMSDP=7.11D-04 MaxDP=7.11D-03 DE=-2.96D-03 OVMax= 7.21D-03

 Cycle   3  Pass 0  IDiag  1:
 E= -152.649664883806     Delta-E=        0.000093578858 Rises=F Damp=F
 DIIS: error= 3.05D-03 at cycle   3 NSaved=   3.
 NSaved= 3 IEnMin= 2 EnMin= -152.649758462664     IErMin= 2 ErrMin= 2.36D-03
 ErrMax= 3.05D-03  0.00D+00 EMaxC= 1.00D-01 BMatC= 4.20D-04 BMatP= 2.73D-04
 IDIUse=3 WtCom= 1.53D-01 WtEn= 8.47D-01
 Coeff-Com:  0.130D-01 0.550D+00 0.437D+00
 Coeff-En:   0.000D+00 0.578D+00 0.422D+00
 Coeff:      0.200D-02 0.574D+00 0.424D+00
 Gap=     0.181 Goal=   None    Shift=    0.000
 RMSDP=3.47D-04 MaxDP=3.29D-03 DE= 9.36D-05 OVMax= 3.72D-03

 Cycle   4  Pass 0  IDiag  1:
 E= -152.649961664530     Delta-E=       -0.000296780724 Rises=F Damp=F
 DIIS: error= 1.80D-04 at cycle   4 NSaved=   4.
 NSaved= 4 IEnMin= 4 EnMin= -152.649961664530     IErMin= 4 ErrMin= 1.80D-04
 ErrMax= 1.80D-04  0.00D+00 EMaxC= 1.00D-01 BMatC= 1.70D-06 BMatP= 2.73D-04
 IDIUse=3 WtCom= 9.98D-01 WtEn= 1.80D-03
 Coeff-Com:  0.569D-03 0.171D+00 0.106D+00 0.723D+00
 Coeff-En:   0.000D+00 0.000D+00 0.000D+00 0.100D+01
 Coeff:      0.568D-03 0.170D+00 0.105D+00 0.724D+00
 Gap=     0.180 Goal=   None    Shift=    0.000
 RMSDP=3.03D-05 MaxDP=2.79D-04 DE=-2.97D-04 OVMax= 3.08D-04

 Cycle   5  Pass 0  IDiag  1:
 E= -152.649963033504     Delta-E=       -0.000001368974 Rises=F Damp=F
 DIIS: error= 3.30D-05 at cycle   5 NSaved=   5.
 NSaved= 5 IEnMin= 5 EnMin= -152.649963033504     IErMin= 5 ErrMin= 3.30D-05
 ErrMax= 3.30D-05  0.00D+00 EMaxC= 1.00D-01 BMatC= 4.09D-08 BMatP= 1.70D-06
 IDIUse=1 WtCom= 1.00D+00 WtEn= 0.00D+00
 Coeff-Com:  0.303D-04 0.576D-01 0.335D-01 0.271D+00 0.638D+00
 Coeff:      0.303D-04 0.576D-01 0.335D-01 0.271D+00 0.638D+00
 Gap=     0.180 Goal=   None    Shift=    0.000
 RMSDP=5.27D-06 MaxDP=5.10D-05 DE=-1.37D-06 OVMax= 6.02D-05

 Initial convergence to 1.0D-05 achieved.  Increase integral accuracy.
 Cycle   6  Pass 1  IDiag  1:
 E= -152.649944897162     Delta-E=        0.000018136342 Rises=F Damp=F
 DIIS: error= 2.41D-05 at cycle   1 NSaved=   1.
 NSaved= 1 IEnMin= 1 EnMin= -152.649944897162     IErMin= 1 ErrMin= 2.41D-05
 ErrMax= 2.41D-05  0.00D+00 EMaxC= 1.00D-01 BMatC= 2.03D-08 BMatP= 2.03D-08
 IDIUse=1 WtCom= 1.00D+00 WtEn= 0.00D+00
 Coeff-Com:  0.100D+01
 Coeff:      0.100D+01
 Gap=     0.180 Goal=   None    Shift=    0.000
 RMSDP=5.27D-06 MaxDP=5.10D-05 DE= 1.81D-05 OVMax= 8.86D-05

 Cycle   7  Pass 1  IDiag  1:
 E= -152.649944862189     Delta-E=        0.000000034973 Rises=F Damp=F
 DIIS: error= 4.43D-05 at cycle   2 NSaved=   2.
 NSaved= 2 IEnMin= 1 EnMin= -152.649944897162     IErMin= 1 ErrMin= 2.41D-05
 ErrMax= 4.43D-05  0.00D+00 EMaxC= 1.00D-01 BMatC= 7.09D-08 BMatP= 2.03D-08
 IDIUse=1 WtCom= 1.00D+00 WtEn= 0.00D+00
 Coeff-Com:  0.652D+00 0.348D+00
 Coeff:      0.652D+00 0.348D+00
 Gap=     0.180 Goal=   None    Shift=    0.000
 RMSDP=4.68D-06 MaxDP=4.39D-05 DE= 3.50D-08 OVMax= 5.37D-05

 Cycle   8  Pass 1  IDiag  1:
 E= -152.649944912503     Delta-E=       -0.000000050315 Rises=F Damp=F
 DIIS: error= 9.57D-07 at cycle   3 NSaved=   3.
 NSaved= 3 IEnMin= 3 EnMin= -152.649944912503     IErMin= 3 ErrMin= 9.57D-07
 ErrMax= 9.57D-07  0.00D+00 EMaxC= 1.00D-01 BMatC= 2.44D-11 BMatP= 2.03D-08
 IDIUse=1 WtCom= 1.00D+00 WtEn= 0.00D+00
 Coeff-Com:  0.103D+00 0.464D-01 0.851D+00
 Coeff:      0.103D+00 0.464D-01 0.851D+00
 Gap=     0.180 Goal=   None    Shift=    0.000
 RMSDP=1.45D-07 MaxDP=2.18D-06 DE=-5.03D-08 OVMax= 1.59D-06

 Cycle   9  Pass 1  IDiag  1:
 E= -152.649944912515     Delta-E=       -0.000000000012 Rises=F Damp=F
 DIIS: error= 4.62D-07 at cycle   4 NSaved=   4.
 NSaved= 4 IEnMin= 4 EnMin= -152.649944912515     IErMin= 4 ErrMin= 4.62D-07
 ErrMax= 4.62D-07  0.00D+00 EMaxC= 1.00D-01 BMatC= 1.01D-11 BMatP= 2.44D-11
 IDIUse=1 WtCom= 1.00D+00 WtEn= 0.00D+00
 Coeff-Com:  0.276D-01 0.967D-02 0.434D+00 0.529D+00
 Coeff:      0.276D-01 0.967D-02 0.434D+00 0.529D+00
 Gap=     0.180 Goal=   None    Shift=    0.000
 RMSDP=7.20D-08 MaxDP=7.53D-07 DE=-1.20D-11 OVMax= 8.20D-07

 Cycle  10  Pass 1  IDiag  1:
 E= -152.649944912522     Delta-E=       -0.000000000007 Rises=F Damp=F
 DIIS: error= 1.63D-07 at cycle   5 NSaved=   5.
 NSaved= 5 IEnMin= 5 EnMin= -152.649944912522     IErMin= 5 ErrMin= 1.63D-07
 ErrMax= 1.63D-07  0.00D+00 EMaxC= 1.00D-01 BMatC= 1.30D-12 BMatP= 1.01D-11
 IDIUse=1 WtCom= 1.00D+00 WtEn= 0.00D+00
 Coeff-Com:  0.214D-02-0.702D-03 0.136D+00 0.303D+00 0.559D+00
 Coeff:      0.214D-02-0.702D-03 0.136D+00 0.303D+00 0.559D+00
 Gap=     0.180 Goal=   None    Shift=    0.000
 RMSDP=2.12D-08 MaxDP=2.17D-07 DE=-6.71D-12 OVMax= 2.28D-07

 Cycle  11  Pass 1  IDiag  1:
 E= -152.649944912523     Delta-E=       -0.000000000001 Rises=F Damp=F
 DIIS: error= 5.70D-09 at cycle   6 NSaved=   6.
 NSaved= 6 IEnMin= 6 EnMin= -152.649944912523     IErMin= 6 ErrMin= 5.70D-09
 ErrMax= 5.70D-09  0.00D+00 EMaxC= 1.00D-01 BMatC= 1.27D-15 BMatP= 1.30D-12
 IDIUse=1 WtCom= 1.00D+00 WtEn= 0.00D+00
 Coeff-Com:  0.585D-04-0.589D-04 0.125D-01 0.323D-01 0.732D-01 0.882D+00
 Coeff:      0.585D-04-0.589D-04 0.125D-01 0.323D-01 0.732D-01 0.882D+00
 Gap=     0.180 Goal=   None    Shift=    0.000
 RMSDP=1.03D-09 MaxDP=7.97D-09 DE=-6.82D-13 OVMax= 1.14D-08

 SCF Done:  E(RPBE-PBE) =  -152.649944913     A.U. after   11 cycles
            NFock= 11  Conv=0.10D-08     -V/T= 2.0075
 KE= 1.515099306247D+02 PE=-4.391842399390D+02 EE= 9.595577692112D+01
 Leave Link  502 at Thu Jan 29 09:51:32 2015, MaxMem=    33554432 cpu:         2.2
 (Enter /appl/chem/G09RevD.01/g09/l701.exe)
 Compute integral first derivatives.
 ... and contract with generalized density number  0.
 R6Disp: Adding Grimme-D2 dispersion energy 1st derivatives to the gradient.
 Leave Link  701 at Thu Jan 29 09:51:33 2015, MaxMem=    33554432 cpu:         0.1
 (Enter /appl/chem/G09RevD.01/g09/l702.exe)
 L702 exits ... SP integral derivatives will be done elsewhere.
 Leave Link  702 at Thu Jan 29 09:51:33 2015, MaxMem=    33554432 cpu:         0.0
 (Enter /appl/chem/G09RevD.01/g09/l703.exe)
 Compute integral first derivatives, UseDBF=F ICtDFT=           0.
 Integral derivatives from FoFJK, PRISM(SPDF).
 Calling FoFJK, ICntrl=      2527 FMM=F ISym2X=0 I1Cent= 0 IOpClX= 0 NMat=1 NMatS=1 NMatT=0.
 FoFJK:  IHMeth= 1 ICntrl=    2527 DoSepK=F KAlg= 0 I1Cent=   0 FoldK=F
 IRaf=         0 NMat=   1 IRICut=       1 DoRegI=T DoRafI=F ISym2E= 0.
 FoFCou: FMM=F IPFlag=           0 FMFlag=      100000 FMFlg1=         800
         NFxFlg=           0 DoJE=F BraDBF=F KetDBF=F FulRan=T
         wScrn=  0.000000 ICntrl=    2527 IOpCl=  0 I1Cent=           0 NGrid=           0
         NMat0=    1 NMatS0=      1 NMatT0=    0 NMatD0=    1 NMtDS0=    0 NMtDT0=    0
 Symmetry not used in FoFCou.
 Leave Link  703 at Thu Jan 29 09:51:33 2015, MaxMem=    33554432 cpu:         0.6
 (Enter /appl/chem/G09RevD.01/g09/l716.exe)
 Dipole        = 1.68086043D+00 1.52879225D-01 5.70827658D-01
 ***** Axes restored to original set *****
 -------------------------------------------------------------------
 Center     Atomic                   Forces (Hartrees/Bohr)
 Number     Number              X              Y              Z
 -------------------------------------------------------------------
      1        8          -0.000369596   -0.019492349    0.000977358
      2        1          -0.002491717   -0.001742483   -0.001138913
      3        1           0.002281892   -0.001966010   -0.001173692
      4        8           0.000357564    0.003771197   -0.007265985
      5        1           0.000250154    0.021873468    0.003944015
      6        1          -0.000028296   -0.002443824    0.004657218
 -------------------------------------------------------------------
 Cartesian Forces:  Max     0.021873468 RMS     0.007419602
 Leave Link  716 at Thu Jan 29 09:51:33 2015, MaxMem=    33554432 cpu:         0.0
 (Enter /appl/chem/G09RevD.01/g09/l103.exe)

 GradGradGradGradGradGradGradGradGradGradGradGradGradGradGradGradGradGrad
 Berny optimization.
 Using GEDIIS/GDIIS optimizer.
 FormGI is forming the generalized inverse of G from B-inverse, IUseBI=4.
 Internal  Forces:  Max     0.023218374 RMS     0.006661627
 Search for a local minimum.
 Step number   2 out of a maximum of   24
 All quantities printed in internal units (Hartrees-Bohrs-Radians)
 RMS Force = .66616D-02 SwitMx=.10000D-02 MixMth= 1
 Mixed Optimization -- RFO/linear search
 Update second derivatives using D2CorX and points    1    2
 DE= -1.29D-02 DEPred=-1.28D-02 R= 1.01D+00
 TightC=F SS=  1.41D+00  RLast= 3.03D-01 DXNew= 5.0454D-01 9.0954D-01
 Trust test= 1.01D+00 RLast= 3.03D-01 DXMaxT set to 5.05D-01
 The second derivative matrix:
                          R1        R2        R3        R4        R5
           R1           0.56342
           R2           0.00243   0.56298
           R3          -0.00635  -0.00622   0.11384
           R4           0.01681   0.01651  -0.00193   0.64325
           R5           0.00049   0.00049  -0.00796   0.00855   0.55988
           A1           0.00082   0.00081   0.00113   0.00307   0.00057
           A2           0.00012   0.00011   0.00084  -0.00009   0.00017
           A3          -0.00028  -0.00027  -0.00038  -0.00103  -0.00019
           A4           0.00756   0.00742   0.01332   0.02597   0.00563
           A5          -0.00292  -0.00287  -0.00383  -0.01106  -0.00201
           A6           0.00007   0.00007   0.00022   0.00015   0.00006
           D1           0.00011   0.00011   0.00054   0.00009   0.00012
           D2          -0.00086  -0.00084  -0.00147  -0.00298  -0.00063
           D3           0.00065   0.00064   0.00113   0.00224   0.00048
                          A1        A2        A3        A4        A5
           A1           0.16008
           A2          -0.00003   0.15998
           A3          -0.00003   0.00001   0.16001
           A4           0.00052  -0.00034  -0.00017   0.16294
           A5          -0.00028   0.00010   0.00009  -0.00195   0.01699
           A6           0.00000  -0.00001   0.00000  -0.00004   0.00000
           D1          -0.00001  -0.00001   0.00000  -0.00018   0.00005
           D2          -0.00006   0.00004   0.00002  -0.00036   0.00023
           D3           0.00005  -0.00003  -0.00002   0.00026  -0.00017
                          A6        D1        D2        D3
           A6           0.01596
           D1           0.00000   0.01592
           D2           0.00000   0.00002   0.00234
           D3           0.00000  -0.00001  -0.00003   0.00232
 ITU=  1  0
 Use linear search instead of GDIIS.
     Eigenvalues ---    0.00230   0.00970   0.01596   0.01669   0.11002
     Eigenvalues ---    0.15896   0.16000   0.16501   0.55775   0.56061
     Eigenvalues ---    0.56086   0.65255
 RFO step:  Lambda=-6.34312354D-03 EMin= 2.30049059D-03
 Quartic linear search produced a step of  0.81619.
 Iteration  1 RMS(Cart)=  0.10548113 RMS(Int)=  0.04560892
 Iteration  2 RMS(Cart)=  0.05366588 RMS(Int)=  0.00336262
 Iteration  3 RMS(Cart)=  0.00319345 RMS(Int)=  0.00214276
 Iteration  4 RMS(Cart)=  0.00000229 RMS(Int)=  0.00214276
 Iteration  5 RMS(Cart)=  0.00000000 RMS(Int)=  0.00214276
 ITry= 1 IFail=0 DXMaxC= 3.29D-01 DCOld= 1.00D+10 DXMaxT= 5.05D-01 DXLimC= 3.00D+00 Rises=F
 Variable       Old X    -DE/DX   Delta X   Delta X   Delta X     New X
                                 (Linear)    (Quad)   (Total)
    R1        1.83741   0.00317   0.02341  -0.01243   0.01098   1.84839
    R2        1.83718   0.00310   0.02298  -0.01221   0.01076   1.84794
    R3        2.86557   0.02322   0.20865   0.10716   0.31572   3.18129
    R4        1.89306   0.00125   0.06889  -0.06212   0.00691   1.89997
    R5        1.83267   0.00393   0.01932  -0.00611   0.01321   1.84587
    A1        1.85548  -0.00025   0.00245  -0.00950  -0.00972   1.84576
    A2        2.27412  -0.00029  -0.00485  -0.00459  -0.01284   2.26128
    A3        2.14497   0.00039  -0.00080  -0.00013  -0.00343   2.14154
    A4        1.85241  -0.00642  -0.00009  -0.06912  -0.06921   1.78320
    A5        3.20758  -0.00154  -0.10090  -0.22169  -0.32419   2.88339
    A6        3.10477  -0.00036  -0.00768  -0.03579  -0.04337   3.06140
    D1        3.01399  -0.00116  -0.02738  -0.10503  -0.12792   2.88607
    D2        1.75260   0.00004  -0.02089  -0.05898  -0.07705   1.67555
    D3       -1.58989  -0.00034   0.00700  -0.06083  -0.05677  -1.64666
         Item               Value     Threshold  Converged?
 Maximum Force            0.023218     0.000450     NO 
 RMS     Force            0.006662     0.000300     NO 
 Maximum Displacement     0.328915     0.001800     NO 
 RMS     Displacement     0.156239     0.001200     NO 
 Predicted change in Energy=-1.331681D-03
 Lowest energy point so far.  Saving SCF results.
 GradGradGradGradGradGradGradGradGradGradGradGradGradGradGradGradGradGrad

 Leave Link  103 at Thu Jan 29 09:51:33 2015, MaxMem=    33554432 cpu:         0.0
 (Enter /appl/chem/G09RevD.01/g09/l202.exe)
                          Input orientation:                          
 ---------------------------------------------------------------------
 Center     Atomic      Atomic             Coordinates (Angstroms)
 Number     Number       Type             X           Y           Z
 ---------------------------------------------------------------------
      1          8           0        0.155906    0.948980    2.346530
      2          1           0       -0.610881    0.352354    2.233379
      3          1           0        0.948355    0.386199    2.238970
      4          8           0        0.325615    3.604119    2.530767
      5          1           0        0.221769    2.630572    2.302100
      6          1           0        0.335238    3.586375    3.507353
 ---------------------------------------------------------------------
                    Distance matrix (angstroms):
                    1          2          3          4          5
     1  O    0.000000
     2  H    0.978125   0.000000
     3  H    0.977889   1.559614   0.000000
     4  O    2.666929   3.396975   3.290586   0.000000
     5  H    1.683468   2.426583   2.359899   1.005418   0.000000
     6  H    2.887131   3.602366   3.496546   0.976794   1.542423
                    6
     6  H    0.000000
 Stoichiometry    H4O2
 Framework group  C1[X(H4O2)]
 Deg. of freedom    12
 Full point group                 C1      NOp   1
 RotChk:  IX=0 Diff= 1.29D-01
 Largest Abelian subgroup         C1      NOp   1
 Largest concise Abelian subgroup C1      NOp   1
                         Standard orientation:                         
 ---------------------------------------------------------------------
 Center     Atomic      Atomic             Coordinates (Angstroms)
 Number     Number       Type             X           Y           Z
 ---------------------------------------------------------------------
      1          8           0        1.228282   -0.005546    0.021072
      2          1           0        1.879700   -0.734917    0.001017
      3          1           0        1.750060    0.818472   -0.049703
      4          8           0       -1.436002   -0.002911   -0.097640
      5          1           0       -0.438287   -0.049675   -0.212729
      6          1           0       -1.529718    0.033779    0.873956
 ---------------------------------------------------------------------
 Rotational constants (GHZ):    233.3939897      7.5198834      7.4884776
 Leave Link  202 at Thu Jan 29 09:51:33 2015, MaxMem=    33554432 cpu:         0.0
 (Enter /appl/chem/G09RevD.01/g09/l301.exe)
 Standard basis: 6-31G(d) (6D, 7F)
 Ernie: Thresh=  0.10000D-02 Tol=  0.10000D-05 Strict=F.
 There are    38 symmetry adapted cartesian basis functions of A   symmetry.
 There are    38 symmetry adapted basis functions of A   symmetry.
    38 basis functions,    72 primitive gaussians,    38 cartesian basis functions
    10 alpha electrons       10 beta electrons
       nuclear repulsion energy        37.8375289443 Hartrees.
 IExCor= 1009 DFT=T Ex=PBE Corr=PBE ExCW=0 ScaHFX=  0.000000
 ScaDFX=  1.000000  1.000000  1.000000  1.000000 ScalE2=  1.000000  1.000000
 IRadAn=      0 IRanWt=     -1 IRanGd=            0 ICorTp=0 IEmpDi=121
 NAtoms=    6 NActive=    6 NUniq=    6 SFac= 1.00D+00 NAtFMM=   60 NAOKFM=F Big=F
 Integral buffers will be    131072 words long.
 Raffenetti 2 integral format.
 Two-electron integral symmetry is turned on.
 R6Disp:  Grimme-D2 Dispersion energy=       -0.0010808391 Hartrees.
 Nuclear repulsion after empirical dispersion term =       37.8364481052 Hartrees.
 Leave Link  301 at Thu Jan 29 09:51:33 2015, MaxMem=    33554432 cpu:         0.1
 (Enter /appl/chem/G09RevD.01/g09/l302.exe)
 NPDir=0 NMtPBC=     1 NCelOv=     1 NCel=       1 NClECP=     1 NCelD=      1
         NCelK=      1 NCelE2=     1 NClLst=     1 CellRange=     0.0.
 One-electron integrals computed using PRISM.
 NBasis=    38 RedAO= T EigKep=  1.34D-02  NBF=    38
 NBsUse=    38 1.00D-06 EigRej= -1.00D+00 NBFU=    38
 Precomputing XC quadrature grid using
 IXCGrd= 4 IRadAn=           0 IRanWt=          -1 IRanGd=           0 AccXCQ= 0.00D+00.
 Generated NRdTot=       0 NPtTot=           0 NUsed=           0 NTot=          32
 NSgBfM=    38    38    38    38    38 MxSgAt=     6 MxSgA2=     6.
 Leave Link  302 at Thu Jan 29 09:51:34 2015, MaxMem=    33554432 cpu:         0.2
 (Enter /appl/chem/G09RevD.01/g09/l303.exe)
 DipDrv:  MaxL=1.
 Leave Link  303 at Thu Jan 29 09:51:34 2015, MaxMem=    33554432 cpu:         0.0
 (Enter /appl/chem/G09RevD.01/g09/l401.exe)
 Initial guess from the checkpoint file:  "dimer.chk"
 B after Tr=     0.000000    0.000000    0.000000
         Rot=    0.998770   -0.049158   -0.006394    0.000448 Ang=  -5.68 deg.
 Guess basis will be translated and rotated to current coordinates.
 JPrj=2 DoOrth=T DoCkMO=T.
 Generating alternative initial guess.
 ExpMin= 1.61D-01 ExpMax= 5.48D+03 ExpMxC= 8.25D+02 IAcc=1 IRadAn=         1 AccDes= 0.00D+00
 Harris functional with IExCor= 1009 and IRadAn=       1 diagonalized for initial guess.
 HarFok:  IExCor= 1009 AccDes= 0.00D+00 IRadAn=         1 IDoV= 1 UseB2=F ITyADJ=14
 ICtDFT=  3500011 ScaDFX=  1.000000  1.000000  1.000000  1.000000
 FoFCou: FMM=F IPFlag=           0 FMFlag=      100000 FMFlg1=           0
         NFxFlg=           0 DoJE=T BraDBF=F KetDBF=T FulRan=T
         wScrn=  0.000000 ICntrl=     500 IOpCl=  0 I1Cent=   200000004 NGrid=           0
         NMat0=    1 NMatS0=      1 NMatT0=    0 NMatD0=    1 NMtDS0=    0 NMtDT0=    0
 Petite list used in FoFCou.
 Harris En= -152.749457827307    
 Leave Link  401 at Thu Jan 29 09:51:34 2015, MaxMem=    33554432 cpu:         0.4
 (Enter /appl/chem/G09RevD.01/g09/l502.exe)
 Closed shell SCF:
 Using DIIS extrapolation, IDIIS=  1040.
 Integral symmetry usage will be decided dynamically.
 Keep J ints in memory in canonical form, NReq=1158825.
 IVT=       23404 IEndB=       23404 NGot=    33554432 MDV=    33256118
 LenX=    33256118 LenY=    33254233
 Requested convergence on RMS density matrix=1.00D-08 within 128 cycles.
 Requested convergence on MAX density matrix=1.00D-06.
 Requested convergence on             energy=1.00D-06.
 No special actions if energy rises.
 FoFCou: FMM=F IPFlag=           0 FMFlag=           0 FMFlg1=           0
         NFxFlg=           0 DoJE=F BraDBF=F KetDBF=F FulRan=T
         wScrn=  0.000000 ICntrl=     600 IOpCl=  0 I1Cent=           0 NGrid=           0
         NMat0=    1 NMatS0=    741 NMatT0=    0 NMatD0=    1 NMtDS0=    0 NMtDT0=    0
 Symmetry not used in FoFCou.
 Integral accuracy reduced to 1.0D-05 until final iterations.

 Cycle   1  Pass 0  IDiag  1:
 E= -152.641841070934    
 DIIS: error= 1.07D-02 at cycle   1 NSaved=   1.
 NSaved= 1 IEnMin= 1 EnMin= -152.641841070934     IErMin= 1 ErrMin= 1.07D-02
 ErrMax= 1.07D-02  0.00D+00 EMaxC= 1.00D-01 BMatC= 7.61D-03 BMatP= 7.61D-03
 IDIUse=3 WtCom= 8.93D-01 WtEn= 1.07D-01
 Coeff-Com:  0.100D+01
 Coeff-En:   0.100D+01
 Coeff:      0.100D+01
 Recover alternate guess density for next cycle.
 RMSDP=9.00D-03 MaxDP=7.26D-02              OVMax= 0.00D+00

 Cycle   2  Pass 0  IDiag  1:
 E= -152.525836570032     Delta-E=        0.116004500903 Rises=F Damp=F
 Switch densities from cycles 1 and 2 for lowest energy.
 DIIS: error= 7.55D-02 at cycle   2 NSaved=   2.
 NSaved= 2 IEnMin= 1 EnMin= -152.641841070934     IErMin= 1 ErrMin= 1.07D-02
 ErrMax= 7.55D-02  0.00D+00 EMaxC= 1.00D+00 BMatC= 1.68D-01 BMatP= 7.61D-03
 IDIUse=1 WtCom= 1.00D+00 WtEn= 0.00D+00
 Coeff-Com:  0.971D+00 0.290D-01
 Coeff:      0.971D+00 0.290D-01
 Gap=     0.183 Goal=   None    Shift=    0.000
 RMSDP=4.44D-03 MaxDP=4.38D-02 DE= 1.16D-01 OVMax= 9.07D-02

 Cycle   3  Pass 0  IDiag  1:
 E= -152.654094929868     Delta-E=       -0.128258359837 Rises=F Damp=F
 DIIS: error= 5.70D-03 at cycle   3 NSaved=   3.
 NSaved= 3 IEnMin= 3 EnMin= -152.654094929868     IErMin= 3 ErrMin= 5.70D-03
 ErrMax= 5.70D-03  0.00D+00 EMaxC= 1.00D+00 BMatC= 1.15D-03 BMatP= 7.61D-03
 IDIUse=1 WtCom= 1.00D+00 WtEn= 0.00D+00
 Coeff-Com:  0.107D-01 0.741D-01 0.915D+00
 Coeff:      0.107D-01 0.741D-01 0.915D+00
 Gap=     0.186 Goal=   None    Shift=    0.000
 RMSDP=6.47D-04 MaxDP=6.57D-03 DE=-1.28D-01 OVMax= 7.35D-03

 Cycle   4  Pass 0  IDiag  1:
 E= -152.654904963125     Delta-E=       -0.000810033257 Rises=F Damp=F
 DIIS: error= 1.04D-03 at cycle   4 NSaved=   4.
 NSaved= 4 IEnMin= 4 EnMin= -152.654904963125     IErMin= 4 ErrMin= 1.04D-03
 ErrMax= 1.04D-03  0.00D+00 EMaxC= 1.00D+00 BMatC= 4.17D-05 BMatP= 1.15D-03
 IDIUse=1 WtCom= 1.00D+00 WtEn= 0.00D+00
 Coeff-Com: -0.104D-03 0.378D-01 0.457D+00 0.505D+00
 Coeff:     -0.104D-03 0.378D-01 0.457D+00 0.505D+00
 Gap=     0.188 Goal=   None    Shift=    0.000
 RMSDP=1.58D-04 MaxDP=1.50D-03 DE=-8.10D-04 OVMax= 1.82D-03

 Cycle   5  Pass 0  IDiag  1:
 E= -152.654930230434     Delta-E=       -0.000025267309 Rises=F Damp=F
 DIIS: error= 4.81D-04 at cycle   5 NSaved=   5.
 NSaved= 5 IEnMin= 5 EnMin= -152.654930230434     IErMin= 5 ErrMin= 4.81D-04
 ErrMax= 4.81D-04  0.00D+00 EMaxC= 1.00D+00 BMatC= 7.28D-06 BMatP= 4.17D-05
 IDIUse=1 WtCom= 1.00D+00 WtEn= 0.00D+00
 Coeff-Com: -0.126D-02 0.816D-02 0.900D-01 0.304D+00 0.599D+00
 Coeff:     -0.126D-02 0.816D-02 0.900D-01 0.304D+00 0.599D+00
 Gap=     0.187 Goal=   None    Shift=    0.000
 RMSDP=5.51D-05 MaxDP=5.18D-04 DE=-2.53D-05 OVMax= 6.53D-04

 Cycle   6  Pass 0  IDiag  1:
 E= -152.654935483942     Delta-E=       -0.000005253508 Rises=F Damp=F
 DIIS: error= 5.88D-05 at cycle   6 NSaved=   6.
 NSaved= 6 IEnMin= 6 EnMin= -152.654935483942     IErMin= 6 ErrMin= 5.88D-05
 ErrMax= 5.88D-05  0.00D+00 EMaxC= 1.00D+00 BMatC= 1.31D-07 BMatP= 7.28D-06
 IDIUse=1 WtCom= 1.00D+00 WtEn= 0.00D+00
 Coeff-Com:  0.772D-04 0.104D-02 0.829D-02 0.811D-01 0.218D+00 0.691D+00
 Coeff:      0.772D-04 0.104D-02 0.829D-02 0.811D-01 0.218D+00 0.691D+00
 Gap=     0.187 Goal=   None    Shift=    0.000
 RMSDP=9.14D-06 MaxDP=8.12D-05 DE=-5.25D-06 OVMax= 1.41D-04

 Initial convergence to 1.0D-05 achieved.  Increase integral accuracy.
 Cycle   7  Pass 1  IDiag  1:
 E= -152.654913857872     Delta-E=        0.000021626070 Rises=F Damp=F
 DIIS: error= 6.42D-06 at cycle   1 NSaved=   1.
 NSaved= 1 IEnMin= 1 EnMin= -152.654913857872     IErMin= 1 ErrMin= 6.42D-06
 ErrMax= 6.42D-06  0.00D+00 EMaxC= 1.00D+00 BMatC= 1.65D-09 BMatP= 1.65D-09
 IDIUse=1 WtCom= 1.00D+00 WtEn= 0.00D+00
 Coeff-Com:  0.100D+01
 Coeff:      0.100D+01
 Gap=     0.188 Goal=   None    Shift=    0.000
 RMSDP=9.14D-06 MaxDP=8.12D-05 DE= 2.16D-05 OVMax= 2.28D-05

 Cycle   8  Pass 1  IDiag  1:
 E= -152.654913857961     Delta-E=       -0.000000000089 Rises=F Damp=F
 DIIS: error= 9.10D-06 at cycle   2 NSaved=   2.
 NSaved= 2 IEnMin= 2 EnMin= -152.654913857961     IErMin= 1 ErrMin= 6.42D-06
 ErrMax= 9.10D-06  0.00D+00 EMaxC= 1.00D+00 BMatC= 1.91D-09 BMatP= 1.65D-09
 IDIUse=1 WtCom= 1.00D+00 WtEn= 0.00D+00
 Coeff-Com:  0.521D+00 0.479D+00
 Coeff:      0.521D+00 0.479D+00
 Gap=     0.187 Goal=   None    Shift=    0.000
 RMSDP=1.04D-06 MaxDP=1.20D-05 DE=-8.93D-11 OVMax= 1.32D-05

 Cycle   9  Pass 1  IDiag  1:
 E= -152.654913859226     Delta-E=       -0.000000001265 Rises=F Damp=F
 DIIS: error= 3.06D-06 at cycle   3 NSaved=   3.
 NSaved= 3 IEnMin= 3 EnMin= -152.654913859226     IErMin= 3 ErrMin= 3.06D-06
 ErrMax= 3.06D-06  0.00D+00 EMaxC= 1.00D+00 BMatC= 1.91D-10 BMatP= 1.65D-09
 IDIUse=1 WtCom= 1.00D+00 WtEn= 0.00D+00
 Coeff-Com:  0.135D+00 0.263D+00 0.602D+00
 Coeff:      0.135D+00 0.263D+00 0.602D+00
 Gap=     0.187 Goal=   None    Shift=    0.000
 RMSDP=2.44D-07 MaxDP=2.93D-06 DE=-1.26D-09 OVMax= 3.18D-06

 Cycle  10  Pass 1  IDiag  1:
 E= -152.654913859359     Delta-E=       -0.000000000133 Rises=F Damp=F
 DIIS: error= 2.25D-07 at cycle   4 NSaved=   4.
 NSaved= 4 IEnMin= 4 EnMin= -152.654913859359     IErMin= 4 ErrMin= 2.25D-07
 ErrMax= 2.25D-07  0.00D+00 EMaxC= 1.00D+00 BMatC= 2.36D-12 BMatP= 1.91D-10
 IDIUse=1 WtCom= 1.00D+00 WtEn= 0.00D+00
 Coeff-Com:  0.181D-01 0.622D-01 0.184D+00 0.736D+00
 Coeff:      0.181D-01 0.622D-01 0.184D+00 0.736D+00
 Gap=     0.187 Goal=   None    Shift=    0.000
 RMSDP=4.78D-08 MaxDP=4.35D-07 DE=-1.33D-10 OVMax= 6.58D-07

 Cycle  11  Pass 1  IDiag  1:
 E= -152.654913859361     Delta-E=       -0.000000000002 Rises=F Damp=F
 DIIS: error= 2.02D-07 at cycle   5 NSaved=   5.
 NSaved= 5 IEnMin= 5 EnMin= -152.654913859361     IErMin= 5 ErrMin= 2.02D-07
 ErrMax= 2.02D-07  0.00D+00 EMaxC= 1.00D+00 BMatC= 9.70D-13 BMatP= 2.36D-12
 IDIUse=1 WtCom= 1.00D+00 WtEn= 0.00D+00
 Coeff-Com:  0.407D-02 0.242D-01 0.801D-01 0.458D+00 0.434D+00
 Coeff:      0.407D-02 0.242D-01 0.801D-01 0.458D+00 0.434D+00
 Gap=     0.187 Goal=   None    Shift=    0.000
 RMSDP=1.94D-08 MaxDP=2.23D-07 DE=-1.76D-12 OVMax= 2.43D-07

 Cycle  12  Pass 1  IDiag  1:
 E= -152.654913859361     Delta-E=        0.000000000000 Rises=F Damp=F
 DIIS: error= 2.81D-08 at cycle   6 NSaved=   6.
 NSaved= 6 IEnMin= 6 EnMin= -152.654913859361     IErMin= 6 ErrMin= 2.81D-08
 ErrMax= 2.81D-08  0.00D+00 EMaxC= 1.00D+00 BMatC= 2.61D-14 BMatP= 9.70D-13
 IDIUse=1 WtCom= 1.00D+00 WtEn= 0.00D+00
 Coeff-Com:  0.433D-04 0.411D-02 0.156D-01 0.131D+00 0.193D+00 0.657D+00
 Coeff:      0.433D-04 0.411D-02 0.156D-01 0.131D+00 0.193D+00 0.657D+00
 Gap=     0.187 Goal=   None    Shift=    0.000
 RMSDP=3.66D-09 MaxDP=2.85D-08 DE=-2.84D-13 OVMax= 4.63D-08

 SCF Done:  E(RPBE-PBE) =  -152.654913859     A.U. after   12 cycles
            NFock= 12  Conv=0.37D-08     -V/T= 2.0081
 KE= 1.514314484691D+02 PE=-4.366422043418D+02 EE= 9.471939390814D+01
 Leave Link  502 at Thu Jan 29 09:51:36 2015, MaxMem=    33554432 cpu:         2.3
 (Enter /appl/chem/G09RevD.01/g09/l701.exe)
 Compute integral first derivatives.
 ... and contract with generalized density number  0.
 R6Disp: Adding Grimme-D2 dispersion energy 1st derivatives to the gradient.
 Leave Link  701 at Thu Jan 29 09:51:37 2015, MaxMem=    33554432 cpu:         0.1
 (Enter /appl/chem/G09RevD.01/g09/l702.exe)
 L702 exits ... SP integral derivatives will be done elsewhere.
 Leave Link  702 at Thu Jan 29 09:51:37 2015, MaxMem=    33554432 cpu:         0.0
 (Enter /appl/chem/G09RevD.01/g09/l703.exe)
 Compute integral first derivatives, UseDBF=F ICtDFT=           0.
 Integral derivatives from FoFJK, PRISM(SPDF).
 Calling FoFJK, ICntrl=      2527 FMM=F ISym2X=0 I1Cent= 0 IOpClX= 0 NMat=1 NMatS=1 NMatT=0.
 FoFJK:  IHMeth= 1 ICntrl=    2527 DoSepK=F KAlg= 0 I1Cent=   0 FoldK=F
 IRaf=         0 NMat=   1 IRICut=       1 DoRegI=T DoRafI=F ISym2E= 0.
 FoFCou: FMM=F IPFlag=           0 FMFlag=      100000 FMFlg1=         800
         NFxFlg=           0 DoJE=F BraDBF=F KetDBF=F FulRan=T
         wScrn=  0.000000 ICntrl=    2527 IOpCl=  0 I1Cent=           0 NGrid=           0
         NMat0=    1 NMatS0=      1 NMatT0=    0 NMatD0=    1 NMtDS0=    0 NMtDT0=    0
 Symmetry not used in FoFCou.
 Leave Link  703 at Thu Jan 29 09:51:38 2015, MaxMem=    33554432 cpu:         0.9
 (Enter /appl/chem/G09RevD.01/g09/l716.exe)
 Dipole        = 1.76222375D+00 5.76049703D-02 4.83359699D-01
 ***** Axes restored to original set *****
 -------------------------------------------------------------------
 Center     Atomic                   Forces (Hartrees/Bohr)
 Number     Number              X              Y              Z
 -------------------------------------------------------------------
      1        8          -0.000439819   -0.010844236    0.001477553
      2        1           0.002293762    0.000984179   -0.000767654
      3        1          -0.002270457    0.000938098   -0.000727188
      4        8          -0.000877000   -0.008818849   -0.003498406
      5        1           0.001499259    0.018473188    0.004567857
      6        1          -0.000205743   -0.000732382   -0.001052163
 -------------------------------------------------------------------
 Cartesian Forces:  Max     0.018473188 RMS     0.005726133
 Leave Link  716 at Thu Jan 29 09:51:38 2015, MaxMem=    33554432 cpu:         0.0
 (Enter /appl/chem/G09RevD.01/g09/l103.exe)

 GradGradGradGradGradGradGradGradGradGradGradGradGradGradGradGradGradGrad
 Berny optimization.
 Using GEDIIS/GDIIS optimizer.
 FormGI is forming the generalized inverse of G from B-inverse, IUseBI=4.
 Internal  Forces:  Max     0.010336832 RMS     0.003856936
 Search for a local minimum.
 Step number   3 out of a maximum of   24
 All quantities printed in internal units (Hartrees-Bohrs-Radians)
 RMS Force = .38569D-02 SwitMx=.10000D-02 MixMth= 1
 Mixed Optimization -- RFO/linear search
 Update second derivatives using D2CorX and points    2    3
 DE= -4.97D-03 DEPred=-1.33D-03 R= 3.73D+00
 TightC=F SS=  1.41D+00  RLast= 4.88D-01 DXNew= 8.4853D-01 1.4626D+00
 Trust test= 3.73D+00 RLast= 4.88D-01 DXMaxT set to 8.49D-01
 The second derivative matrix:
                          R1        R2        R3        R4        R5
           R1           0.56647
           R2           0.00546   0.56598
           R3          -0.00607  -0.00587   0.05631
           R4           0.02455   0.02416   0.00833   0.66126
           R5           0.00297   0.00294  -0.00992   0.01519   0.56181
           A1           0.00162   0.00159   0.00499   0.00447   0.00137
           A2           0.00010   0.00010   0.00371  -0.00060   0.00027
           A3           0.00006   0.00006   0.00165  -0.00050   0.00016
           A4           0.00530   0.00518   0.01711   0.01959   0.00396
           A5          -0.00384  -0.00379   0.00473  -0.01481  -0.00242
           A6          -0.00001  -0.00001   0.00102  -0.00017   0.00003
           D1          -0.00001  -0.00002   0.00325  -0.00067   0.00013
           D2          -0.00157  -0.00154  -0.00212  -0.00468  -0.00123
           D3           0.00131   0.00129   0.00238   0.00372   0.00107
                          A1        A2        A3        A4        A5
           A1           0.16004
           A2          -0.00022   0.15984
           A3          -0.00007  -0.00009   0.15998
           A4          -0.00034  -0.00053  -0.00056   0.16433
           A5          -0.00109  -0.00032  -0.00031  -0.00187   0.01597
           A6          -0.00007  -0.00005  -0.00004  -0.00004  -0.00009
           D1          -0.00023  -0.00015  -0.00010  -0.00028  -0.00032
           D2          -0.00021   0.00007  -0.00004   0.00021   0.00053
           D3           0.00014  -0.00009   0.00002  -0.00032  -0.00055
                          A6        D1        D2        D3
           A6           0.01595
           D1          -0.00004   0.01580
           D2           0.00003   0.00008   0.00250
           D3          -0.00004  -0.00010  -0.00017   0.00244
 ITU=  1  1  0
 Use linear search instead of GDIIS.
     Eigenvalues ---    0.00230   0.01073   0.01476   0.01600   0.05449
     Eigenvalues ---    0.15862   0.16010   0.16608   0.55927   0.56062
     Eigenvalues ---    0.56088   0.67625
 RFO step:  Lambda=-1.46738127D-03 EMin= 2.29817943D-03
 Quartic linear search produced a step of  0.61223.
 Iteration  1 RMS(Cart)=  0.07969725 RMS(Int)=  0.02384006
 Iteration  2 RMS(Cart)=  0.02378065 RMS(Int)=  0.00451723
 Iteration  3 RMS(Cart)=  0.00029259 RMS(Int)=  0.00450194
 Iteration  4 RMS(Cart)=  0.00000090 RMS(Int)=  0.00450194
 ITry= 1 IFail=0 DXMaxC= 1.57D-01 DCOld= 1.00D+10 DXMaxT= 8.49D-01 DXLimC= 3.00D+00 Rises=F
 Variable       Old X    -DE/DX   Delta X   Delta X   Delta X     New X
                                 (Linear)    (Quad)   (Total)
    R1        1.84839  -0.00231   0.00672  -0.00696  -0.00023   1.84816
    R2        1.84794  -0.00230   0.00659  -0.00693  -0.00034   1.84761
    R3        3.18129   0.00889   0.19329   0.05666   0.24988   3.43118
    R4        1.89997  -0.01034   0.00423  -0.02317  -0.01881   1.88116
    R5        1.84587  -0.00104   0.00809  -0.00449   0.00360   1.84947
    A1        1.84576  -0.00078  -0.00595  -0.01812  -0.03207   1.81369
    A2        2.26128   0.00042  -0.00786  -0.00601  -0.02396   2.23731
    A3        2.14154   0.00026  -0.00210  -0.01033  -0.02001   2.12153
    A4        1.78320  -0.00141  -0.04237   0.00447  -0.03790   1.74530
    A5        2.88339   0.00218  -0.19848   0.09895  -0.10060   2.78279
    A6        3.06140  -0.00003  -0.02655  -0.01637  -0.04297   3.01843
    D1        2.88607  -0.00029  -0.07832  -0.12513  -0.19633   2.68973
    D2        1.67555   0.00117  -0.04717  -0.02718  -0.07231   1.60324
    D3       -1.64666  -0.00125  -0.03475  -0.24265  -0.27951  -1.92617
         Item               Value     Threshold  Converged?
 Maximum Force            0.010337     0.000450     NO 
 RMS     Force            0.003857     0.000300     NO 
 Maximum Displacement     0.156513     0.001800     NO 
 RMS     Displacement     0.095361     0.001200     NO 
 Predicted change in Energy=-6.694495D-04
 Lowest energy point so far.  Saving SCF results.
 GradGradGradGradGradGradGradGradGradGradGradGradGradGradGradGradGradGrad

 Leave Link  103 at Thu Jan 29 09:51:38 2015, MaxMem=    33554432 cpu:         0.0
 (Enter /appl/chem/G09RevD.01/g09/l202.exe)
                          Input orientation:                          
 ---------------------------------------------------------------------
 Center     Atomic      Atomic             Coordinates (Angstroms)
 Number     Number       Type             X           Y           Z
 ---------------------------------------------------------------------
      1          8           0        0.167891    0.905333    2.402665
      2          1           0       -0.608344    0.325742    2.268423
      3          1           0        0.928875    0.336284    2.172438
      4          8           0        0.370809    3.661498    2.542958
      5          1           0        0.256556    2.713395    2.261895
      6          1           0        0.260214    3.566347    3.510721
 ---------------------------------------------------------------------
                    Distance matrix (angstroms):
                    1          2          3          4          5
     1  O    0.000000
     2  H    0.978002   0.000000
     3  H    0.977711   1.540249   0.000000
     4  O    2.767183   3.487317   3.392016   0.000000
     5  H    1.815700   2.539485   2.471978   0.995465   0.000000
     6  H    2.883974   3.577599   3.559694   0.978699   1.512319
                    6
     6  H    0.000000
 Stoichiometry    H4O2
 Framework group  C1[X(H4O2)]
 Deg. of freedom    12
 Full point group                 C1      NOp   1
 RotChk:  IX=0 Diff= 7.09D-01
 Largest Abelian subgroup         C1      NOp   1
 Largest concise Abelian subgroup C1      NOp   1
                         Standard orientation:                         
 ---------------------------------------------------------------------
 Center     Atomic      Atomic             Coordinates (Angstroms)
 Number     Number       Type             X           Y           Z
 ---------------------------------------------------------------------
      1          8           0        1.273984   -0.020505    0.032383
      2          1           0        1.914974   -0.639072   -0.371342
      3          1           0        1.810105    0.769609    0.242651
      4          8           0       -1.490103    0.053322   -0.075675
      5          1           0       -0.513566    0.095568   -0.264196
      6          1           0       -1.482558   -0.488643    0.739228
 ---------------------------------------------------------------------
 Rotational constants (GHZ):    229.4421748      7.0381075      6.9993777
 Leave Link  202 at Thu Jan 29 09:51:38 2015, MaxMem=    33554432 cpu:         0.0
 (Enter /appl/chem/G09RevD.01/g09/l301.exe)
 Standard basis: 6-31G(d) (6D, 7F)
 Ernie: Thresh=  0.10000D-02 Tol=  0.10000D-05 Strict=F.
 There are    38 symmetry adapted cartesian basis functions of A   symmetry.
 There are    38 symmetry adapted basis functions of A   symmetry.
    38 basis functions,    72 primitive gaussians,    38 cartesian basis functions
    10 alpha electrons       10 beta electrons
       nuclear repulsion energy        37.1497246797 Hartrees.
 IExCor= 1009 DFT=T Ex=PBE Corr=PBE ExCW=0 ScaHFX=  0.000000
 ScaDFX=  1.000000  1.000000  1.000000  1.000000 ScalE2=  1.000000  1.000000
 IRadAn=      0 IRanWt=     -1 IRanGd=            0 ICorTp=0 IEmpDi=121
 NAtoms=    6 NActive=    6 NUniq=    6 SFac= 1.00D+00 NAtFMM=   60 NAOKFM=F Big=F
 Integral buffers will be    131072 words long.
 Raffenetti 2 integral format.
 Two-electron integral symmetry is turned on.
 R6Disp:  Grimme-D2 Dispersion energy=       -0.0009980504 Hartrees.
 Nuclear repulsion after empirical dispersion term =       37.1487266293 Hartrees.
 Leave Link  301 at Thu Jan 29 09:51:38 2015, MaxMem=    33554432 cpu:         0.1
 (Enter /appl/chem/G09RevD.01/g09/l302.exe)
 NPDir=0 NMtPBC=     1 NCelOv=     1 NCel=       1 NClECP=     1 NCelD=      1
         NCelK=      1 NCelE2=     1 NClLst=     1 CellRange=     0.0.
 One-electron integrals computed using PRISM.
 NBasis=    38 RedAO= T EigKep=  1.52D-02  NBF=    38
 NBsUse=    38 1.00D-06 EigRej= -1.00D+00 NBFU=    38
 Precomputing XC quadrature grid using
 IXCGrd= 4 IRadAn=           0 IRanWt=          -1 IRanGd=           0 AccXCQ= 0.00D+00.
 Generated NRdTot=       0 NPtTot=           0 NUsed=           0 NTot=          32
 NSgBfM=    38    38    38    38    38 MxSgAt=     6 MxSgA2=     6.
 Leave Link  302 at Thu Jan 29 09:51:38 2015, MaxMem=    33554432 cpu:         0.2
 (Enter /appl/chem/G09RevD.01/g09/l303.exe)
 DipDrv:  MaxL=1.
 Leave Link  303 at Thu Jan 29 09:51:38 2015, MaxMem=    33554432 cpu:         0.0
 (Enter /appl/chem/G09RevD.01/g09/l401.exe)
 Initial guess from the checkpoint file:  "dimer.chk"
 B after Tr=     0.000000    0.000000    0.000000
         Rot=    0.966798   -0.255529   -0.002700   -0.000123 Ang= -29.61 deg.
 Guess basis will be translated and rotated to current coordinates.
 JPrj=2 DoOrth=T DoCkMO=T.
 Generating alternative initial guess.
 ExpMin= 1.61D-01 ExpMax= 5.48D+03 ExpMxC= 8.25D+02 IAcc=1 IRadAn=         1 AccDes= 0.00D+00
 Harris functional with IExCor= 1009 and IRadAn=       1 diagonalized for initial guess.
 HarFok:  IExCor= 1009 AccDes= 0.00D+00 IRadAn=         1 IDoV= 1 UseB2=F ITyADJ=14
 ICtDFT=  3500011 ScaDFX=  1.000000  1.000000  1.000000  1.000000
 FoFCou: FMM=F IPFlag=           0 FMFlag=      100000 FMFlg1=           0
         NFxFlg=           0 DoJE=T BraDBF=F KetDBF=T FulRan=T
         wScrn=  0.000000 ICntrl=     500 IOpCl=  0 I1Cent=   200000004 NGrid=           0
         NMat0=    1 NMatS0=      1 NMatT0=    0 NMatD0=    1 NMtDS0=    0 NMtDT0=    0
 Petite list used in FoFCou.
[...]
 Dipole        = 2.94141977D-01 3.12263630D-02 2.14312778D-02
 ***** Axes restored to original set *****
 -------------------------------------------------------------------
 Center     Atomic                   Forces (Hartrees/Bohr)
 Number     Number              X              Y              Z
 -------------------------------------------------------------------
      1        8           0.000003780    0.000012033   -0.000052548
      2        1           0.000018538   -0.000005538    0.000028415
      3        1          -0.000015337   -0.000001680    0.000027002
      4        8           0.000002504   -0.000010421    0.000021077
      5        1          -0.000021256    0.000008781   -0.000012464
      6        1           0.000011770   -0.000003175   -0.000011482
 -------------------------------------------------------------------
 Cartesian Forces:  Max     0.000052548 RMS     0.000019139
 Leave Link  716 at Thu Jan 29 09:52:37 2015, MaxMem=    33554432 cpu:         0.0
 (Enter /appl/chem/G09RevD.01/g09/l103.exe)

 GradGradGradGradGradGradGradGradGradGradGradGradGradGradGradGradGradGrad
 Berny optimization.
 Using GEDIIS/GDIIS optimizer.
 FormGI is forming the generalized inverse of G from B-inverse, IUseBI=4.
 Internal  Forces:  Max     0.000032921 RMS     0.000013794
 Search for a local minimum.
 Step number  17 out of a maximum of   24
 All quantities printed in internal units (Hartrees-Bohrs-Radians)
 RMS Force = .13794D-04 SwitMx=.10000D-02 MixMth= 2
 Mixed Optimization -- En-DIIS/RFO-DIIS
 Swapping is turned off.
 Update second derivatives using D2CorX and points    9   10   11   12   13
                                                     14   15   16   17
 DE= -9.17D-08 DEPred=-2.90D-08 R= 3.16D+00
 Trust test= 3.16D+00 RLast= 3.48D-03 DXMaxT set to 1.34D+00
 The second derivative matrix:
                          R1        R2        R3        R4        R5
           R1           0.61595
           R2           0.05073   0.60803
           R3           0.00667   0.00759   0.01928
           R4           0.01410   0.01708   0.02580   0.58685
           R5           0.01056   0.00965  -0.00113  -0.02253   0.55190
           A1           0.02930   0.02507   0.00306   0.00317  -0.00339
           A2          -0.02195  -0.02452  -0.00158   0.01977   0.00411
           A3          -0.00240   0.00359  -0.00001  -0.00776   0.00124
           A4          -0.00795  -0.00676   0.00359   0.04197   0.00977
           A5          -0.00057   0.00049  -0.00437  -0.00789   0.00070
           A6           0.00187   0.00126  -0.00104  -0.00197  -0.00075
           D1           0.02521   0.02463   0.00413  -0.01999  -0.00200
           D2          -0.00668  -0.00882   0.00048   0.00789  -0.00054
           D3           0.00023   0.00360   0.00002  -0.00528   0.00004
                          A1        A2        A3        A4        A5
           A1           0.09346
           A2           0.00770   0.02250
           A3           0.00283  -0.00028   0.02993
           A4          -0.00320   0.00211   0.00133   0.17636
           A5          -0.00212   0.00621   0.00495  -0.00910   0.01020
           A6           0.00030  -0.00540   0.00617   0.00001  -0.00119
           D1          -0.00257  -0.00646  -0.00456  -0.00153   0.00100
           D2          -0.02973  -0.00263  -0.00565  -0.00709   0.00173
           D3           0.03185   0.00514   0.00082   0.00757  -0.00130
                          A6        D1        D2        D3
           A6           0.01522
           D1          -0.00058   0.01335
           D2           0.00095   0.00092   0.02649
           D3          -0.00070  -0.00104  -0.02151   0.02192
 ITU=  0  0  1  1  1  1  1  1  1  1  1  1  1  1  1
     Eigenvalues ---    0.00189   0.00245   0.01034   0.01747   0.01948
     Eigenvalues ---    0.03278   0.11706   0.17216   0.53944   0.56103
     Eigenvalues ---    0.59940   0.67182
 En-DIIS/RFO-DIIS IScMMF=        0 using points:    17   16   15   14   13
 RFO step:  Lambda=-4.44342125D-09.
 NNeg= 0 NP= 5 Switch=  2.50D-03 Rises=F DC=  2.22D-05 SmlDif=  1.00D-05
 RMS Error=  0.3192725381D-04 NUsed= 5 EDIIS=F
 DidBck=F Rises=F RFO-DIIS coefs:    1.52732   -0.52487   -0.04989    0.05630   -0.00885
 Iteration  1 RMS(Cart)=  0.00050707 RMS(Int)=  0.00000238
 Iteration  2 RMS(Cart)=  0.00000041 RMS(Int)=  0.00000171
 ITry= 1 IFail=0 DXMaxC= 1.26D-03 DCOld= 1.00D+10 DXMaxT= 1.34D+00 DXLimC= 3.00D+00 Rises=F
 Variable       Old X    -DE/DX   Delta X   Delta X   Delta X     New X
                                 (Linear)    (Quad)   (Total)
    R1        1.85077  -0.00003  -0.00003  -0.00003  -0.00006   1.85071
    R2        1.85083  -0.00003  -0.00002  -0.00002  -0.00005   1.85079
    R3        3.59891  -0.00001  -0.00039  -0.00018  -0.00057   3.59834
    R4        1.86524  -0.00002  -0.00001  -0.00001  -0.00002   1.86522
    R5        1.84404  -0.00001   0.00000  -0.00001  -0.00002   1.84402
    A1        1.79004   0.00001   0.00018  -0.00002   0.00016   1.79020
    A2        1.51826   0.00000   0.00048  -0.00021   0.00026   1.51852
    A3        1.51143  -0.00001   0.00020  -0.00003   0.00017   1.51160
    A4        1.80992   0.00001  -0.00002   0.00002  -0.00001   1.80991
    A5        3.69517  -0.00001  -0.00093  -0.00020  -0.00112   3.69405
    A6        2.99551   0.00000  -0.00003  -0.00034  -0.00037   2.99514
    D1        1.50361   0.00000   0.00052  -0.00023   0.00030   1.50391
    D2        2.24985  -0.00001  -0.00008   0.00048   0.00040   2.25025
    D3       -2.20560   0.00001  -0.00012   0.00049   0.00037  -2.20523
         Item               Value     Threshold  Converged?
 Maximum Force            0.000033     0.000450     YES
 RMS     Force            0.000014     0.000300     YES
 Maximum Displacement     0.001257     0.001800     YES
 RMS     Displacement     0.000507     0.001200     YES
 Predicted change in Energy=-7.027609D-09
 Optimization completed.
    -- Stationary point found.
                           ----------------------------
                           !   Optimized Parameters   !
                           ! (Angstroms and Degrees)  !
 --------------------------                            --------------------------
 ! Name  Definition              Value          Derivative Info.                !
 --------------------------------------------------------------------------------
 ! R1    R(1,2)                  0.9794         -DE/DX =    0.0                 !
 ! R2    R(1,3)                  0.9794         -DE/DX =    0.0                 !
 ! R3    R(1,5)                  1.9045         -DE/DX =    0.0                 !
 ! R4    R(4,5)                  0.987          -DE/DX =    0.0                 !
 ! R5    R(4,6)                  0.9758         -DE/DX =    0.0                 !
 ! A1    A(2,1,3)              102.5615         -DE/DX =    0.0                 !
 ! A2    A(2,1,5)               86.9899         -DE/DX =    0.0                 !
 ! A3    A(3,1,5)               86.5984         -DE/DX =    0.0                 !
 ! A4    A(5,4,6)              103.7007         -DE/DX =    0.0                 !
 ! A5    L(1,5,4,6,-1)         211.7176         -DE/DX =    0.0                 !
 ! A6    L(1,5,4,6,-2)         171.6303         -DE/DX =    0.0                 !
 ! D1    D(2,1,3,5)             86.1503         -DE/DX =    0.0                 !
 ! D2    D(2,1,4,6)            128.9069         -DE/DX =    0.0                 !
 ! D3    D(3,1,4,6)           -126.3715         -DE/DX =    0.0                 !
 --------------------------------------------------------------------------------
 Lowest energy point so far.  Saving SCF results.
 GradGradGradGradGradGradGradGradGradGradGradGradGradGradGradGradGradGrad

 Largest change from initial coordinates is atom    2       1.251 Angstoms.
 Leave Link  103 at Thu Jan 29 09:52:37 2015, MaxMem=    33554432 cpu:         0.0
 (Enter /appl/chem/G09RevD.01/g09/l202.exe)
                          Input orientation:                          
 ---------------------------------------------------------------------
 Center     Atomic      Atomic             Coordinates (Angstroms)
 Number     Number       Type             X           Y           Z
 ---------------------------------------------------------------------
      1          8           0        0.175463    0.531651    2.627038
      2          1           0       -0.587143    0.681382    2.031046
      3          1           0        0.940407    0.634076    2.024019
      4          8           0        0.279728    3.315182    2.432746
      5          1           0        0.243357    2.421720    2.850664
      6          1           0        0.324188    3.924589    3.193588
 ---------------------------------------------------------------------
                    Distance matrix (angstroms):
                    1          2          3          4          5
     1  O    0.000000
     2  H    0.979385   0.000000
     3  H    0.979420   1.528299   0.000000
     4  O    2.792251   2.801737   2.791395   0.000000
     5  H    1.904463   2.095300   2.089233   0.987042   0.000000
     6  H    3.443127   3.563765   3.546138   0.975825   1.543614
                    6
     6  H    0.000000
 Stoichiometry    H4O2
 Framework group  C1[X(H4O2)]
 Deg. of freedom    12
 Full point group                 C1      NOp   1
 RotChk:  IX=0 Diff= 3.32D-13
 Largest Abelian subgroup         C1      NOp   1
 Largest concise Abelian subgroup C1      NOp   1
                         Standard orientation:                         
 ---------------------------------------------------------------------
 Center     Atomic      Atomic             Coordinates (Angstroms)
 Number     Number       Type             X           Y           Z
 ---------------------------------------------------------------------
      1          8           0        1.389417   -0.111861   -0.044602
      2          1           0        1.279097    0.734329   -0.525214
      3          1           0        1.266906    0.156136    0.889438
      4          8           0       -1.392596    0.110483    0.042769
      5          1           0       -0.505199   -0.288220   -0.124012
      6          1           0       -2.015373   -0.591222   -0.225546
 ---------------------------------------------------------------------
 Rotational constants (GHZ):    202.0987965      7.1388797      7.1239622
 Leave Link  202 at Thu Jan 29 09:52:37 2015, MaxMem=    33554432 cpu:         0.0
 (Enter /appl/chem/G09RevD.01/g09/l601.exe)
 Copying SCF densities to generalized density rwf, IOpCl= 0 IROHF=0.

 **********************************************************************

            Population analysis using the SCF density.

 **********************************************************************

 Orbital symmetries:
       Occupied  (A) (A) (A) (A) (A) (A) (A) (A) (A) (A)
       Virtual   (A) (A) (A) (A) (A) (A) (A) (A) (A) (A) (A) (A)
                 (A) (A) (A) (A) (A) (A) (A) (A) (A) (A) (A) (A)
                 (A) (A) (A) (A)
 The electronic state is 1-A.
 Alpha  occ. eigenvalues --  -18.79317 -18.73297  -0.93675  -0.87837  -0.48471
 Alpha  occ. eigenvalues --   -0.43887  -0.34704  -0.29725  -0.25952  -0.20875
 Alpha virt. eigenvalues --    0.01976   0.08150   0.10397   0.19046   0.68902
 Alpha virt. eigenvalues --    0.74317   0.77265   0.79478   0.83653   0.87072
 Alpha virt. eigenvalues --    0.87909   0.94778   0.98155   1.04735   1.14846
 Alpha virt. eigenvalues --    1.38942   1.64139   1.64368   1.67969   1.68758
 Alpha virt. eigenvalues --    1.69904   1.73016   2.15521   2.26700   2.44883
 Alpha virt. eigenvalues --    2.50687   3.47542   3.55407
          Condensed to atoms (all electrons):
               1          2          3          4          5          6
     1  O    8.213093   0.236334   0.236133  -0.021708   0.068273   0.000642
     2  H    0.236334   0.384307  -0.020510   0.004822  -0.007147  -0.000139
     3  H    0.236133  -0.020510   0.384514   0.005162  -0.007363  -0.000142
     4  O   -0.021708   0.004822   0.005162   8.409344   0.187983   0.230524
     5  H    0.068273  -0.007147  -0.007363   0.187983   0.400375  -0.014309
     6  H    0.000642  -0.000139  -0.000142   0.230524  -0.014309   0.411261
 Mulliken charges:
               1
     1  O   -0.732767
     2  H    0.402333
     3  H    0.402207
     4  O   -0.816126
     5  H    0.372188
     6  H    0.372164
 Sum of Mulliken charges =   0.00000
 Mulliken charges with hydrogens summed into heavy atoms:
               1
     1  O    0.071774
     4  O   -0.071774
 Electronic spatial extent (au):  <R**2>=            173.7217
 Charge=              0.0000 electrons
 Dipole moment (field-independent basis, Debye):
    X=              0.7476    Y=              0.0794    Z=              0.0545  Tot=              0.7538
 Quadrupole moment (field-independent basis, Debye-Ang):
   XX=            -13.7761   YY=            -11.9372   ZZ=            -11.6209
   XY=              5.4378   XZ=              2.1204   YZ=             -0.1842
 Traceless Quadrupole moment (field-independent basis, Debye-Ang):
   XX=             -1.3313   YY=              0.5075   ZZ=              0.8238
   XY=              5.4378   XZ=              2.1204   YZ=             -0.1842
 Octapole moment (field-independent basis, Debye-Ang**2):
  XXX=             -8.0688  YYY=              0.3997  ZZZ=              0.9547  XYY=              0.4235
  XXY=             -2.1000  XXZ=             -0.7731  XZZ=              3.5082  YZZ=              0.5167
  YYZ=             -0.5562  XYZ=             -1.4711
 Hexadecapole moment (field-independent basis, Debye-Ang**3):
 XXXX=           -154.5267 YYYY=            -12.4444 ZZZZ=            -11.3674 XXXY=             15.9788
 XXXZ=              6.0411 YYYX=              3.8120 YYYZ=             -0.4474 ZZZX=              2.1444
 ZZZY=             -0.0602 XXYY=            -25.9646 XXZZ=            -26.5928 YYZZ=             -3.9694
 XXYZ=              0.1822 YYXZ=             -0.0411 ZZXY=              1.5744
 N-N= 3.737234241023D+01 E-N=-4.355759480602D+02  KE= 1.514558608221D+02
 No NMR shielding tensors so no spin-rotation constants.
 Leave Link  601 at Thu Jan 29 09:52:37 2015, MaxMem=    33554432 cpu:         0.2
 (Enter /appl/chem/G09RevD.01/g09/l9999.exe)
 1\1\GINC-C306\FOpt\RPBEPBE\6-31G(d)\H4O2\ROOT\29-Jan-2015\0\\#PBEPBE/6
 -31G* EmpiricalDispersion=GD2 opt\\dimeeri\\0,1\O,0.1754628084,0.53165
 11858,2.6270382123\H,-0.5871432617,0.6813818408,2.0310456414\H,0.94040
 69637,0.6340757029,2.0240187878\O,0.2797279968,3.315182062,2.432745522
 9\H,0.243357292,2.4217202413,2.8506639879\H,0.3241882009,3.9245889672,
 3.1935878477\\Version=ES64L-G09RevD.01\State=1-A\HF=-152.6602468\RMSD=
 4.358e-09\RMSF=1.914e-05\Dipole=-0.0036039,-0.2935941,-0.0417544\Quadr
 upole=0.6791825,-1.1326681,0.4534857,0.020036,0.1833957,4.3114246\PG=C
 01 [X(H4O2)]\\@


                                                                                    A
                                                                                  AA
                                                                                 AAA
                                                                                AAAA
                                                                               AAAAA
                                                                              AAAAAA   KKKKKKKK
                                                                             AAAAAAA   KKKKKKKK
                                                                            AAAAAAAA   KKKKKKKK
                                       ZZZZZZZZZZZZZZZZZZZZ                AAAA  AAA   KKKKKKKK
                                       ZZZZZZZZZZZZZZZZZZZ                AAAA   AAA   KKKKKKKK          K
                                       ZZZZZZZZZZZZZZZZZZ                AAAA    AAA   KKKKKKKK         KKK
                                       ZZZZZZZZZZZZZZZZZ                AAAA     AAA   KKKKKKKK        KKKKK
                                       ZZZZZZZZZZZZZZZZ                AAAA      AAA   KKKKKKKK       KKKKKKK
                                                ZZZZZZ                AAAA       AAA   KKKKKKKK      KKKKKKK
                                               ZZZZZZ                AAAA        AAA   KKKKKKKK     KKKKKKK
                                              ZZZZZZ                AAAA         AAA   KKKKKKKK    KKKKKKK
                                             ZZZZZZ                AAAA          AAA   KKKKKKKK   KKKKKKK
                                            ZZZZZZ                AAAAAAAAAAAAAAAAAA   KKKKKKKK  KKKKKKK
                                           ZZZZZZ                AAAAAAAAAAAAAAAAAAA   KKKKKKKK KKKKKKK
                                          ZZZZZZ                AAAAAAAAAAAAAAAAAAAA   KKKKKKKKKKKKKKK
                                         ZZZZZZ                AAAAAAAAAAAAAAAAAAAAA   KKKKKKKKKKKKKK
                                        ZZZZZZ                AAAAAA        AAAAAAAA   KKKKKKKKKKKKK
                                       ZZZZZZ                AAAAAA         AAAAAAAA   KKKKKKKKKKKK
                                      ZZZZZZ                AAAAAA          AAAAAAAA   KKKKKKKKKKK
                                     ZZZZZZ                AAAAAA           AAAAAAAA   KKKKKKKKKKKK
                                    ZZZZZZ                AAAAAA            AAAAAAAA   KKKKKKKKKKKKK
                                   ZZZZZZ                AAAAAA             AAAAAAAA   KKKKKKKKKKKKKK
                                  ZZZZZZ                AAAAAA              AAAAAAAA   KKKKKKKKKKKKKKK
                                 ZZZZZZ                AAAAAA               AAAAAAAA   KKKKK KKKKKKKKKK
                                ZZZZZZ                AAAAAA                AAAAAAAA   KKKKK  KKKKKKKKKK
                               ZZZZZZ                AAAAAA                            KKKKK   KKKKKKKKKK
                              ZZZZZZ                AAAAAA                             KKKKK    KKKKKKKKKK
                             ZZZZZZ                                                    KKKKK     KKKKKKKKKK
                            ZZZZZZ                                                     KKKKK      KKKKKKKKKK
                           ZZZZZZ                                                      KKKKK       KKKKKKKKKK
                          ZZZZZZ                                                       KKKKK        KKKKKKKKKK
                         ZZZZZZZZZZZZZZZZZZZZZZZZZZZZZZZZZZZZZZZZ                      KKKKK         KKKKKKKKKK
                        ZZZZZZZZZZZZZZZZZZZZZZZZZZZZZZZZZZZZZZZZZ                      KKKKK          KKKKKKKKKK
                       ZZZZZZZZZZZZZZZZZZZZZZZZZZZZZZZZZZZZZZZZZZ                      KKKKK           KKKKKKKKKK
                       ZZZZZZZZZZZZZZZZZZZZZZZZZZZZZZZZZZZZZZZZZZ                      KKKKK            KKKKKKKKKK
                       ZZZZZZZZZZZZZZZZZZZZZZZZZZZZZZZZZZZZZZZZZZ                      KKKKK             KKKKKKKKKK
                       ZZZZZZZZZZZZZZZZZZZZZZZZZZZZZZZZZZZZZZZZZZ                      KKKKK              KKKKKKKKKK
                       ZZZZZZZZZZZZZZZZZZZZZZZZZZZZZZZZZZZZZZZZZZ                      KKKKK               KKKKKKKKKK
                       ZZZZZZZZZZZZZZZZZZZZZZZZZZZZZZZZZZZZZZZZZZ                      KKKKK                KKKKKKKKKK
                       ZZZZZZZZZZZZZZZZZZZZZZZZZZZZZZZZZZZZZZZZZZ                      KKKKK
                                                                                       KKKKK
                                                                                          (J.P.)
 Job cpu time:       0 days  0 hours  1 minutes 16.1 seconds.
 File lengths (MBytes):  RWF=      5 Int=      0 D2E=      0 Chk=      1 Scr=      1
 Normal termination of Gaussian 09 at Thu Jan 29 09:52:38 2015.
